                  Welcome to Q-Chem
     A Quantum Leap Into The Future Of Chemistry


 Q-Chem 5.4 (devel), Q-Chem, Inc., Pleasanton, CA (2021)

 E. Epifanovsky,  A. T. B. Gilbert,  Xintian Feng,  Joonho Lee,  Yuezhi Mao,  
 N. Mardirossian,  P. Pokhilko,  A. White,  M. Wormit,  M. P. Coons,  
 A. L. Dempwolff,  Zhengting Gan,  D. Hait,  P. R. Horn,  L. D. Jacobson,  
 I. Kaliman,  J. Kussmann,  A. W. Lange,  Ka Un Lao,  D. S. Levine,  Jie Liu,  
 S. C. McKenzie,  A. F. Morrison,  K. Nanda,  F. Plasser,  D. R. Rehn,  
 M. L. Vidal,  Zhi-Qiang You,  Ying Zhu,  B. Alam,  B. Albrecht,  
 A. Aldossary,  E. Alguire,  J. H. Andersen,  D. Barton,  K. Begam,  A. Behn,  
 Y. A. Bernard,  E. J. Berquist,  H. Burton,  A. Carreras,  K. Carter-Fenk,  
 Romit Chakraborty,  A. D. Chien,  K. D. Closser,  V. Cofer-Shabica,  
 S. Dasgupta,  Jia Deng,  M. de Wergifosse,  M. Diedenhofen,  Hainam Do,  
 S. Ehlert,  Po-Tung Fang,  S. Fatehi,  Qingguo Feng,  T. Friedhoff,  
 J. Gayvert,  Qinghui Ge,  G. Gidofalvi,  M. Goldey,  J. Gomes,  
 C. Gonzalez-Espinoza,  S. Gulania,  A. Gunina,  M. W. D. Hanson-Heine,  
 P. H. P. Harbach,  A. W. Hauser,  M. F. Herbst,  M. Hernandez Vera,  
 M. Hodecker,  Z. C. Holden,  S. Houck,  Xunkun Huang,  Kerwin Hui,  
 B. C. Huynh,  M. Ivanov,  Hyunjun Ji,  Hanjie Jiang,  B. Kaduk,  S. Kaehler,  
 K. Khistyaev,  Jaehoon Kim,  P. Klunzinger,  Z. Koczor-Benda,  
 Joong Hoon Koh,  D. Kosenkov,  L. Koulias,  T. Kowalczyk,  C. M. Krauter,  
 K. Kue,  A. Kunitsa,  T. Kus,  A. Landau,  K. V. Lawler,  D. Lefrancois,  
 S. Lehtola,  Rain Li,  Yi-Pei Li,  Jiashu Liang,  M. Liebenthal,  
 Hung-Hsuan Lin,  You-Sheng Lin,  Fenglai Liu,  Kuan-Yu Liu,  
 M. Loipersberger,  A. Luenser,  A. Manjanath,  P. Manohar,  E. Mansoor,  
 S. F. Manzer,  Shan-Ping Mao,  A. V. Marenich,  T. Markovich,  S. Mason,  
 S. A. Maurer,  P. F. McLaughlin,  M. F. S. J. Menger,  J.-M. Mewes,  
 S. A. Mewes,  P. Morgante,  J. W. Mullinax,  K. J. Oosterbaan,  G. Paran,  
 Alexander C. Paul,  Suranjan K. Paul,  F. Pavosevic,  Zheng Pei,  S. Prager,  
 E. I. Proynov,  E. Ramos,  B. Rana,  A. E. Rask,  A. Rettig,  R. M. Richard,  
 F. Rob,  E. Rossomme,  T. Scheele,  M. Scheurer,  M. Schneider,  
 N. Sergueev,  S. M. Sharada,  W. Skomorowski,  D. W. Small,  C. J. Stein,  
 Yu-Chuan Su,  E. J. Sundstrom,  Zhen Tao,  J. Thirman,  T. Tsuchimochi,  
 N. M. Tubman,  S. P. Veccham,  O. Vydrov,  J. Wenzel,  J. Witte,  A. Yamada,  
 Kun Yao,  S. Yeganeh,  S. R. Yost,  A. Zech,  Igor Ying Zhang,  Xing Zhang,  
 Yu Zhang,  D. Zuev,  A. Aspuru-Guzik,  A. T. Bell,  N. A. Besley,  
 K. B. Bravaya,  B. R. Brooks,  D. Casanova,  Jeng-Da Chai,  S. Coriani,  
 C. J. Cramer,  A. E. DePrince, III,  R. A. DiStasio Jr.,  A. Dreuw,  
 B. D. Dunietz,  T. R. Furlani,  W. A. Goddard III,  S. Grimme,  
 S. Hammes-Schiffer,  T. Head-Gordon,  W. J. Hehre,  Chao-Ping Hsu,  
 T.-C. Jagau,  Yousung Jung,  A. Klamt,  Jing Kong,  D. S. Lambrecht,  
 WanZhen Liang,  N. J. Mayhall,  C. W. McCurdy,  J. B. Neaton,  T. Neudecker,  
 C. Ochsenfeld,  J. A. Parkhill,  R. Peverati,  V. A. Rassolov,  Yihan Shao,  
 L. V. Slipchenko,  R. P. Steele,  J. E. Subotnik,  A. J. W. Thom,  
 A. Tkatchenko,  D. G. Truhlar,  T. Van Voorhis,  T. A. Wesolowski,  
 K. B. Whaley,  H. L. Woodcock III,  P. M. Zimmerman,  S. Faraji,  
 P. M. W. Gill,  M. Head-Gordon,  J. M. Herbert,  A. I. Krylov

 Additional authors since Version 5.4.0: 
 Chandrima Chakravarty,  L. Cunha,  R. Kang,  Yongbin Kim,  S. Kotaru,  
 Shaozhi Li,  Xiangyuan Li,  F. Matz,  V. Parravicini,  Haisheng Ren,  
 Hengyuan Shen,  Yingli Su,  Hung-Yi Tsai,  C. Utku,  Fan Wang,  Jeff Yang,  
 F. Zeller

 Contributors to earlier versions of Q-Chem not listed above: 
 R. D. Adamson,  B. Austin,  R. Baer,  J. Baker,  G. J. O. Beran,  
 K. Brandhorst,  S. T. Brown,  E. F. C. Byrd,  Arup K. Chakraborty,  
 G. K. L. Chan,  Chun-Min Chang,  Yunqing Chen,  C.-L. Cheng,  
 Siu Hung Chien,  D. M. Chipman,  D. L. Crittenden,  H. Dachsel,  
 R. J. Doerksen,  A. D. Dutoi,  R. G. Edgar,  J. Fosso-Tande,  
 L. Fusti-Molnar,  D. Ghosh,  A. Ghysels,  A. Golubeva-Zadorozhnaya,  
 J. Gonthier,  M. S. Gordon,  S. R. Gwaltney,  G. Hawkins,  J. E. Herr,  
 A. Heyden,  S. Hirata,  E. G. Hohenstein,  G. Kedziora,  F. J. Keil,  
 C. Kelley,  Jihan Kim,  R. A. King,  R. Z. Khaliullin,  P. P. Korambath,  
 W. Kurlancheek,  A. Laurent,  A. M. Lee,  M. S. Lee,  S. V. Levchenko,  
 Ching Yeh Lin,  D. Liotard,  E. Livshits,  R. C. Lochan,  I. Lotan,  
 L. A. Martinez-Martinez,  P. E. Maslen,  N. Nair,  D. P. O'Neill,  
 D. Neuhauser,  E. Neuscamman,  C. M. Oana,  R. Olivares-Amaya,  R. Olson,  
 T. M. Perrine,  B. Peters,  P. A. Pieniazek,  A. Prociuk,  Y. M. Rhee,  
 J. Ritchie,  M. A. Rohrdanz,  E. Rosta,  N. J. Russ,  H. F. Schaefer III,  
 M. W. Schmidt,  N. E. Schultz,  S. Sharma,  N. Shenvi,  C. D. Sherrill,  
 A. C. Simmonett,  A. Sodt,  T. Stein,  D. Stuck,  K. S. Thanthiriwatte,  
 V. Vanovschi,  L. Vogt,  Tao Wang,  A. Warshel,  M. A. Watson,  
 C. F. Williams,  Q. Wu,  X. Xu,  Jun Yang,  W. Zhang,  Yan Zhao

   Please cite Q-Chem as follows:
  "Software for the frontiers of quantum chemistry:
   An overview of developments in the Q-Chem 5 package"
   J. Chem. Phys. 155, 084801 (2021)
   https://doi.org/10.1063/5.0055522 (open access)

 Q-Chem 5.4.2 for Intel X86 EM64T Linux

 Parts of Q-Chem use Armadillo 9.900.5 (Nocturnal Misbehaviour).
 http://arma.sourceforge.net/

 Q-Chem begins on Wed Dec 18 04:52:48 2024  

 Host: n0006.cm1
0

     Scratch files written to /global/scratch/users/jsliang/wB97X-V/SIE4x4_h2o//
 Processing $rem in /clusterfs/mhg/jsliang/qchem_54_print/config/preferences:
 Processing $rem in /global/home/users/jsliang/.qchemrc:

 Checking the input file for inconsistencies... 	...done.

--------------------------------------------------------------
User input:
--------------------------------------------------------------
$molecule
0 1 
   O          0.00000000      0.00000000      0.39393904
   H         -0.75503878      0.00000000     -0.19696952
   H          0.75503878      0.00000000     -0.19696952
$end


$rem
SCF_PRINT 1
DENSITY_PRINT_GRID 000250000974
SCF_CONVERGENCE 7
SCF_ALGORITHM  GDM
SCF_GUESS READ
exchange = gen
lrc_dft = 1
omega = 300
hfk_sr_coef = 0 
hfk_lr_coef = 100000000

GEN_SCFMAN TRUE
UNRESTRICTED True
THRESH  14
SYMMETRY FALSE
SYM_IGNORE TRUE
max_scf_cycles 0

XC_GRID 000099000590
MEM_TOTAL  15000
BASIS DEF2-QZVPPD


$end











$xc_functional
x wB97X-V 1.0 
c wB97X-V 1.0 
$end
--------------------------------------------------------------
 ----------------------------------------------------------------
             Standard Nuclear Orientation (Angstroms)
    I     Atom           X                Y                Z
 ----------------------------------------------------------------
    1      O       0.0000000000     0.0000000000     0.3939390400
    2      H      -0.7550387800     0.0000000000    -0.1969695200
    3      H       0.7550387800     0.0000000000    -0.1969695200
 ----------------------------------------------------------------
 Nuclear Repulsion Energy =       9.181285695624 hartrees
 There are        5 alpha and        5 beta electrons
 Requested basis set is def2-QZVPPD
 There are 42 shells and 132 basis functions

 Total QAlloc Memory Limit  15000 MB
 Mega-Array Size       188 MB
 MEM_STATIC part       192 MB


                       Distance Matrix (Angstroms)
             O (  1)   H (  2)
   H (  2)  0.958779
   H (  3)  0.958779  1.510078
 
 A cutoff of  1.0D-14 yielded    903 shell pairs
 There are      9017 function pairs (     13005 Cartesian)
 Smallest overlap matrix eigenvalue = 1.34E-04

 Scale SEOQF with 1.000000e-01/1.000000e-01/1.000000e-01

 Standard Electronic Orientation quadrupole field applied
 Nucleus-field energy     =    -0.0000000001 hartrees
 Guess MOs from SCF MO coefficient file

 -----------------------------------------------------------------------
  General SCF calculation program by
  Eric Jon Sundstrom, Paul Horn, Yuezhi Mao, Dmitri Zuev, Alec White,
  David Stuck, Shaama M.S., Shane Yost, Joonho Lee, David Small,
  Daniel Levine, Susi Lehtola, Hugh Burton, Evgeny Epifanovsky,
  Bang C. Huynh
 -----------------------------------------------------------------------
 Exchange:  wB97X-V + LR-HF      Correlation:  wB97X-V
 Using Euler-Maclaurin-Lebedev (99,590) quadrature formula
<S^2> =         -0.000000000
 Alpha HF Exchange    Energy =  -0.79296360752688
 Beta HF Exchange     Energy =  -0.79296360752688
 DFT Correlation      Energy =  -0.41826530714886
 DFT Exchange         Energy =  -6.11450844803027
 One-Electron (alpha) Energy = -61.49829625353802
 One-Electron (beta)  Energy = -61.49829625353813
 Total Coulomb        Energy =  46.67584862541308
 Nuclear repulsion Energy =   9.18128569552333
Skip SCF calculation as requested. Computing energy with fixed orbitals.
 Total energy in the final basis set =      -75.2581591564
Now using ground density matrix 
In DFTenergy, GrdTyp = 75000302
In DFTenergy, NBasis = 132
driver: m_xcf.get_type()  2
integratedDV
-8.105743230467e+00 -8.105743230467e+00 -8.105743230467e+00 -8.105743230467e+00 -8.105743230467e+00 -8.105743230467e+00 -8.105743230467e+00 -8.105743230467e+00 -8.105743230467e+00 -8.105743230467e+00 -8.105743230467e+00 -8.105743230467e+00 -8.105743230467e+00 -8.105743230467e+00 -8.105743230467e+00 -8.105743230467e+00 -8.105743230467e+00 -8.105743230467e+00 -8.076071386038e+00 -8.076071386038e+00 -8.076071386038e+00 -8.076071386038e+00 -8.076071386038e+00 -8.076071386038e+00 -8.076071386038e+00 -8.076071386038e+00 -8.076071386038e+00 -8.076071386038e+00 -8.076071386038e+00 -8.076071386038e+00 -8.076071386038e+00 -8.076071386038e+00 -8.076071386038e+00 -8.076071386038e+00 -8.076071386038e+00 -8.076071386038e+00 -6.648364996238e+00 -6.648364996238e+00 -6.648364996238e+00 -6.648364996238e+00 -6.648364996238e+00 -6.648364996238e+00 -6.648364996238e+00 -6.648364996238e+00 -6.648364996238e+00 -6.648364996238e+00 -6.648364996238e+00 -6.648364996238e+00 -6.648364996238e+00 -6.648364996238e+00 -6.648364996238e+00 -6.648364996238e+00 -6.648364996238e+00 -6.648364996238e+00 -6.626250910215e+00 -6.626250910215e+00 -6.626250910215e+00 -6.626250910215e+00 -6.626250910215e+00 -6.626250910215e+00 -6.626250910215e+00 -6.626250910215e+00 -6.626250910215e+00 -6.626250910215e+00 -6.626250910215e+00 -6.626250910215e+00 -6.626250910215e+00 -6.626250910215e+00 -6.626250910215e+00 -6.626250910215e+00 -6.626250910215e+00 -6.626250910215e+00 -3.202348149513e-01 -3.202348149513e-01 -3.202348149513e-01 -3.202348149513e-01 -3.202348149513e-01 -3.202348149513e-01 -3.202348149513e-01 -3.202348149513e-01 -3.202348149513e-01 -3.202348149513e-01 -3.202348149513e-01 -3.202348149513e-01 -3.202348149513e-01 -3.202348149513e-01 -3.202348149513e-01 -3.202348149513e-01 -3.202348149513e-01 -3.202348149513e-01 -1.399223987552e-01 -1.399223987552e-01 -1.399223987552e-01 -1.399223987552e-01 -1.399223987552e-01 -1.399223987552e-01 -1.399223987552e-01 -1.399223987552e-01 -1.399223987552e-01 -1.399223987552e-01 -1.399223987552e-01 -1.399223987552e-01 -1.399223987552e-01 -1.399223987552e-01 -1.399223987552e-01 -1.399223987552e-01 -1.399223987552e-01 -1.399223987552e-01 -3.396498080631e-01 -3.396498080631e-01 -3.396498080631e-01 -3.396498080631e-01 -3.396498080631e-01 -3.396498080631e-01 -3.396498080631e-01 -3.396498080631e-01 -3.396498080631e-01 -3.396498080631e-01 -3.396498080631e-01 -3.396498080631e-01 -3.396498080631e-01 -3.396498080631e-01 -3.396498080631e-01 -3.396498080631e-01 -3.396498080631e-01 -3.396498080631e-01 -1.665515702989e-01 -1.665515702989e-01 -1.665515702989e-01 -1.665515702989e-01 -1.665515702989e-01 -1.665515702989e-01 -1.665515702989e-01 -1.665515702989e-01 -1.665515702989e-01 -1.665515702989e-01 -1.665515702989e-01 -1.665515702989e-01 -1.665515702989e-01 -1.665515702989e-01 -1.665515702989e-01 -1.665515702989e-01 -1.665515702989e-01 -1.665515702989e-01 -8.113598732433e-02 -8.113598732433e-02 -8.113598732433e-02 -8.113598732433e-02 -8.113598732433e-02 -8.113598732433e-02 -8.113598732433e-02 -8.113598732433e-02 -8.113598732433e-02 -8.113598732433e-02 -8.113598732433e-02 -8.113598732433e-02 -8.113598732433e-02 -8.113598732433e-02 -8.113598732433e-02 -8.113598732433e-02 -8.113598732433e-02 -8.113598732433e-02 -2.446533056943e-01 -2.446533056943e-01 -2.446533056943e-01 -2.446533056943e-01 -2.446533056943e-01 -2.446533056943e-01 -2.446533056943e-01 -2.446533056943e-01 -2.446533056943e-01 -2.446533056943e-01 -2.446533056943e-01 -2.446533056943e-01 -2.446533056943e-01 -2.446533056943e-01 -2.446533056943e-01 -2.446533056943e-01 -2.446533056943e-01 -2.446533056943e-01
-9.226150308558e-01 -9.226150308558e-01 -9.226150308558e-01 -9.226150308558e-01 -9.226150308558e-01 -9.226150308558e-01 -9.226150308558e-01 -9.226150308558e-01 -9.226150308558e-01 -9.226150308558e-01 -9.226150308558e-01 -9.226150308558e-01 -9.226150308558e-01 -9.226150308558e-01 -9.226150308558e-01 -9.226150308558e-01 -9.226150308558e-01 -9.226150308558e-01 -9.160134717801e-01 -9.160134717801e-01 -9.160134717801e-01 -9.160134717801e-01 -9.160134717801e-01 -9.160134717801e-01 -9.160134717801e-01 -9.160134717801e-01 -9.160134717801e-01 -9.160134717801e-01 -9.160134717801e-01 -9.160134717801e-01 -9.160134717801e-01 -9.160134717801e-01 -9.160134717801e-01 -9.160134717801e-01 -9.160134717801e-01 -9.160134717801e-01 -7.298110646883e-01 -7.298110646883e-01 -7.298110646883e-01 -7.298110646883e-01 -7.298110646883e-01 -7.298110646883e-01 -7.298110646883e-01 -7.298110646883e-01 -7.298110646883e-01 -7.298110646883e-01 -7.298110646883e-01 -7.298110646883e-01 -7.298110646883e-01 -7.298110646883e-01 -7.298110646883e-01 -7.298110646883e-01 -7.298110646883e-01 -7.298110646883e-01 -7.257389569081e-01 -7.257389569081e-01 -7.257389569081e-01 -7.257389569081e-01 -7.257389569081e-01 -7.257389569081e-01 -7.257389569081e-01 -7.257389569081e-01 -7.257389569081e-01 -7.257389569081e-01 -7.257389569081e-01 -7.257389569081e-01 -7.257389569081e-01 -7.257389569081e-01 -7.257389569081e-01 -7.257389569081e-01 -7.257389569081e-01 -7.257389569081e-01 -2.563219332845e-01 -2.563219332845e-01 -2.563219332845e-01 -2.563219332845e-01 -2.563219332845e-01 -2.563219332845e-01 -2.563219332845e-01 -2.563219332845e-01 -2.563219332845e-01 -2.563219332845e-01 -2.563219332845e-01 -2.563219332845e-01 -2.563219332845e-01 -2.563219332845e-01 -2.563219332845e-01 -2.563219332845e-01 -2.563219332845e-01 -2.563219332845e-01 -1.055930291236e-01 -1.055930291236e-01 -1.055930291236e-01 -1.055930291236e-01 -1.055930291236e-01 -1.055930291236e-01 -1.055930291236e-01 -1.055930291236e-01 -1.055930291236e-01 -1.055930291236e-01 -1.055930291236e-01 -1.055930291236e-01 -1.055930291236e-01 -1.055930291236e-01 -1.055930291236e-01 -1.055930291236e-01 -1.055930291236e-01 -1.055930291236e-01 -5.834786263812e-02 -5.834786263812e-02 -5.834786263812e-02 -5.834786263812e-02 -5.834786263812e-02 -5.834786263812e-02 -5.834786263812e-02 -5.834786263812e-02 -5.834786263812e-02 -5.834786263812e-02 -5.834786263812e-02 -5.834786263812e-02 -5.834786263812e-02 -5.834786263812e-02 -5.834786263812e-02 -5.834786263812e-02 -5.834786263812e-02 -5.834786263812e-02 -1.273475587252e-01 -1.273475587252e-01 -1.273475587252e-01 -1.273475587252e-01 -1.273475587252e-01 -1.273475587252e-01 -1.273475587252e-01 -1.273475587252e-01 -1.273475587252e-01 -1.273475587252e-01 -1.273475587252e-01 -1.273475587252e-01 -1.273475587252e-01 -1.273475587252e-01 -1.273475587252e-01 -1.273475587252e-01 -1.273475587252e-01 -1.273475587252e-01 -5.815949656326e-02 -5.815949656326e-02 -5.815949656326e-02 -5.815949656326e-02 -5.815949656326e-02 -5.815949656326e-02 -5.815949656326e-02 -5.815949656326e-02 -5.815949656326e-02 -5.815949656326e-02 -5.815949656326e-02 -5.815949656326e-02 -5.815949656326e-02 -5.815949656326e-02 -5.815949656326e-02 -5.815949656326e-02 -5.815949656326e-02 -5.815949656326e-02 -3.673048974993e-02 -3.673048974993e-02 -3.673048974993e-02 -3.673048974993e-02 -3.673048974993e-02 -3.673048974993e-02 -3.673048974993e-02 -3.673048974993e-02 -3.673048974993e-02 -3.673048974993e-02 -3.673048974993e-02 -3.673048974993e-02 -3.673048974993e-02 -3.673048974993e-02 -3.673048974993e-02 -3.673048974993e-02 -3.673048974993e-02 -3.673048974993e-02
-1.607415369959e-01 -1.607415369959e-01 -1.607415369959e-01 3.811759309740e+00 3.811759309740e+00 3.811759309740e+00 7.784260156475e+00 7.784260156475e+00 7.784260156475e+00 -1.607415369959e-01 -1.607415369959e-01 -1.607415369959e-01 3.811759309740e+00 3.811759309740e+00 3.811759309740e+00 7.784260156475e+00 7.784260156475e+00 7.784260156475e+00 -1.585855135016e-01 -1.585855135016e-01 -1.585855135016e-01 3.800157422766e+00 3.800157422766e+00 3.800157422766e+00 7.758900359034e+00 7.758900359034e+00 7.758900359034e+00 -1.585855135016e-01 -1.585855135016e-01 -1.585855135016e-01 3.800157422766e+00 3.800157422766e+00 3.800157422766e+00 7.758900359034e+00 7.758900359034e+00 7.758900359034e+00 -1.141914357011e-01 -1.141914357011e-01 -1.141914357011e-01 3.152895344567e+00 3.152895344567e+00 3.152895344567e+00 6.419982124836e+00 6.419982124836e+00 6.419982124836e+00 -1.141914357011e-01 -1.141914357011e-01 -1.141914357011e-01 3.152895344567e+00 3.152895344567e+00 3.152895344567e+00 6.419982124836e+00 6.419982124836e+00 6.419982124836e+00 -1.132557729611e-01 -1.132557729611e-01 -1.132557729611e-01 3.143241795666e+00 3.143241795666e+00 3.143241795666e+00 6.399739364293e+00 6.399739364293e+00 6.399739364293e+00 -1.132557729611e-01 -1.132557729611e-01 -1.132557729611e-01 3.143241795666e+00 3.143241795666e+00 3.143241795666e+00 6.399739364293e+00 6.399739364293e+00 6.399739364293e+00 -2.114889497577e-01 -2.114889497577e-01 -2.114889497577e-01 -1.571160171609e-01 -1.571160171609e-01 -1.571160171609e-01 -1.027430845641e-01 -1.027430845641e-01 -1.027430845641e-01 -2.114889497577e-01 -2.114889497577e-01 -2.114889497577e-01 -1.571160171609e-01 -1.571160171609e-01 -1.571160171609e-01 -1.027430845641e-01 -1.027430845641e-01 -1.027430845641e-01 -8.308601363239e-02 -8.308601363239e-02 -8.308601363239e-02 -5.466782107100e-02 -5.466782107100e-02 -5.466782107100e-02 -2.624962850961e-02 -2.624962850961e-02 -2.624962850961e-02 -8.308601363239e-02 -8.308601363239e-02 -8.308601363239e-02 -5.466782107100e-02 -5.466782107100e-02 -5.466782107100e-02 -2.624962850961e-02 -2.624962850961e-02 -2.624962850961e-02 -1.621595061228e-02 -1.621595061228e-02 -1.621595061228e-02 1.455009781131e-01 1.455009781131e-01 1.455009781131e-01 3.072179068385e-01 3.072179068385e-01 3.072179068385e-01 -1.621595061228e-02 -1.621595061228e-02 -1.621595061228e-02 1.455009781131e-01 1.455009781131e-01 1.455009781131e-01 3.072179068385e-01 3.072179068385e-01 3.072179068385e-01 -1.011818016422e-01 -1.011818016422e-01 -1.011818016422e-01 -6.849691731390e-02 -6.849691731390e-02 -6.849691731390e-02 -3.581203298555e-02 -3.581203298555e-02 -3.581203298555e-02 -1.011818016422e-01 -1.011818016422e-01 -1.011818016422e-01 -6.849691731390e-02 -6.849691731390e-02 -6.849691731390e-02 -3.581203298555e-02 -3.581203298555e-02 -3.581203298555e-02 -4.364181070426e-02 -4.364181070426e-02 -4.364181070426e-02 -2.489472239422e-02 -2.489472239422e-02 -2.489472239422e-02 -6.147634084183e-03 -6.147634084183e-03 -6.147634084183e-03 -4.364181070426e-02 -4.364181070426e-02 -4.364181070426e-02 -2.489472239422e-02 -2.489472239422e-02 -2.489472239422e-02 -6.147634084183e-03 -6.147634084183e-03 -6.147634084183e-03 -9.333260333222e-03 -9.333260333222e-03 -9.333260333222e-03 1.083267623473e-01 1.083267623473e-01 1.083267623473e-01 2.259867850279e-01 2.259867850279e-01 2.259867850279e-01 -9.333260333222e-03 -9.333260333222e-03 -9.333260333222e-03 1.083267623473e-01 1.083267623473e-01 1.083267623473e-01 2.259867850279e-01 2.259867850279e-01 2.259867850279e-01
-4.026464163153e-02 -4.026464163153e-02 -4.026464163153e-02 1.283260942205e+00 1.283260942205e+00 1.283260942205e+00 2.606786526041e+00 2.606786526041e+00 2.606786526041e+00 -4.026464163153e-02 -4.026464163153e-02 -4.026464163153e-02 1.283260942205e+00 1.283260942205e+00 1.283260942205e+00 2.606786526041e+00 2.606786526041e+00 2.606786526041e+00 -3.924946845397e-02 -3.924946845397e-02 -3.924946845397e-02 1.275896536535e+00 1.275896536535e+00 1.275896536535e+00 2.591042541524e+00 2.591042541524e+00 2.591042541524e+00 -3.924946845397e-02 -3.924946845397e-02 -3.924946845397e-02 1.275896536535e+00 1.275896536535e+00 1.275896536535e+00 2.591042541524e+00 2.591042541524e+00 2.591042541524e+00 -2.290248832688e-02 -2.290248832688e-02 -2.290248832688e-02 1.037460376215e+00 1.037460376215e+00 1.037460376215e+00 2.097823240758e+00 2.097823240758e+00 2.097823240758e+00 -2.290248832688e-02 -2.290248832688e-02 -2.290248832688e-02 1.037460376215e+00 1.037460376215e+00 1.037460376215e+00 2.097823240758e+00 2.097823240758e+00 2.097823240758e+00 -2.262898871227e-02 -2.262898871227e-02 -2.262898871227e-02 1.032035963581e+00 1.032035963581e+00 1.032035963581e+00 2.086700915875e+00 2.086700915875e+00 2.086700915875e+00 -2.262898871227e-02 -2.262898871227e-02 -2.262898871227e-02 1.032035963581e+00 1.032035963581e+00 1.032035963581e+00 2.086700915875e+00 2.086700915875e+00 2.086700915875e+00 -1.785329064419e-01 -1.785329064419e-01 -1.785329064419e-01 -6.184936617797e-02 -6.184936617797e-02 -6.184936617797e-02 5.483417408594e-02 5.483417408594e-02 5.483417408594e-02 -1.785329064419e-01 -1.785329064419e-01 -1.785329064419e-01 -6.184936617797e-02 -6.184936617797e-02 -6.184936617797e-02 5.483417408594e-02 5.483417408594e-02 5.483417408594e-02 -6.763521793080e-02 -6.763521793080e-02 -6.763521793080e-02 -1.069850114161e-02 -1.069850114161e-02 -1.069850114161e-02 4.623821564759e-02 4.623821564759e-02 4.623821564759e-02 -6.763521793080e-02 -6.763521793080e-02 -6.763521793080e-02 -1.069850114161e-02 -1.069850114161e-02 -1.069850114161e-02 4.623821564759e-02 4.623821564759e-02 4.623821564759e-02 -6.357141230406e-03 -6.357141230406e-03 -6.357141230406e-03 7.162894088116e-02 7.162894088116e-02 7.162894088116e-02 1.496150229927e-01 1.496150229927e-01 1.496150229927e-01 -6.357141230406e-03 -6.357141230406e-03 -6.357141230406e-03 7.162894088116e-02 7.162894088116e-02 7.162894088116e-02 1.496150229927e-01 1.496150229927e-01 1.496150229927e-01 -8.279218097166e-02 -8.279218097166e-02 -8.279218097166e-02 -1.595911434138e-02 -1.595911434138e-02 -1.595911434138e-02 5.087395228890e-02 5.087395228890e-02 5.087395228890e-02 -8.279218097166e-02 -8.279218097166e-02 -8.279218097166e-02 -1.595911434138e-02 -1.595911434138e-02 -1.595911434138e-02 5.087395228890e-02 5.087395228890e-02 5.087395228890e-02 -3.405242787418e-02 -3.405242787418e-02 -3.405242787418e-02 2.108175159442e-03 2.108175159442e-03 2.108175159442e-03 3.826877819306e-02 3.826877819306e-02 3.826877819306e-02 -3.405242787418e-02 -3.405242787418e-02 -3.405242787418e-02 2.108175159442e-03 2.108175159442e-03 2.108175159442e-03 3.826877819306e-02 3.826877819306e-02 3.826877819306e-02 -3.438338244293e-03 -3.438338244293e-03 -3.438338244293e-03 4.649988901416e-02 4.649988901416e-02 4.649988901416e-02 9.643811627262e-02 9.643811627262e-02 9.643811627262e-02 -3.438338244293e-03 -3.438338244293e-03 -3.438338244293e-03 4.649988901416e-02 4.649988901416e-02 4.649988901416e-02 9.643811627262e-02 9.643811627262e-02 9.643811627262e-02
-1.445591347900e-02 -1.445591347900e-02 -1.445591347900e-02 -2.500117569161e+00 -2.500117569161e+00 -2.500117569161e+00 -6.935458242332e+00 -6.935458242332e+00 -6.935458242332e+00 -1.445591347900e-02 -1.445591347900e-02 -1.445591347900e-02 -2.500117569161e+00 -2.500117569161e+00 -2.500117569161e+00 -6.935458242332e+00 -6.935458242332e+00 -6.935458242332e+00 -1.383587806169e-02 -1.383587806169e-02 -1.383587806169e-02 -2.494363060653e+00 -2.494363060653e+00 -2.494363060653e+00 -6.918074302518e+00 -6.918074302518e+00 -6.918074302518e+00 -1.383587806169e-02 -1.383587806169e-02 -1.383587806169e-02 -2.494363060653e+00 -2.494363060653e+00 -2.494363060653e+00 -6.918074302518e+00 -6.918074302518e+00 -6.918074302518e+00 -5.717476288682e-03 -5.717476288682e-03 -5.717476288682e-03 -2.089932948473e+00 -2.089932948473e+00 -2.089932948473e+00 -5.780573320938e+00 -5.780573320938e+00 -5.780573320938e+00 -5.717476288682e-03 -5.717476288682e-03 -5.717476288682e-03 -2.089932948473e+00 -2.089932948473e+00 -2.089932948473e+00 -5.780573320938e+00 -5.780573320938e+00 -5.780573320938e+00 -5.612223720602e-03 -5.612223720602e-03 -5.612223720602e-03 -2.084688421504e+00 -2.084688421504e+00 -2.084688421504e+00 -5.765102516291e+00 -5.765102516291e+00 -5.765102516291e+00 -5.612223720602e-03 -5.612223720602e-03 -5.612223720602e-03 -2.084688421504e+00 -2.084688421504e+00 -2.084688421504e+00 -5.765102516291e+00 -5.765102516291e+00 -5.765102516291e+00 -1.534000375492e-01 -1.534000375492e-01 -1.534000375492e-01 1.870341706647e-03 1.870341706647e-03 1.870341706647e-03 1.444764827163e-01 1.444764827163e-01 1.444764827163e-01 -1.534000375492e-01 -1.534000375492e-01 -1.534000375492e-01 1.870341706647e-03 1.870341706647e-03 1.870341706647e-03 1.444764827163e-01 1.444764827163e-01 1.444764827163e-01 -5.657150643474e-02 -5.657150643474e-02 -5.657150643474e-02 1.160131093628e-02 1.160131093628e-02 1.160131093628e-02 7.219365882602e-02 7.219365882602e-02 7.219365882602e-02 -5.657150643474e-02 -5.657150643474e-02 -5.657150643474e-02 1.160131093628e-02 1.160131093628e-02 1.160131093628e-02 7.219365882602e-02 7.219365882602e-02 7.219365882602e-02 -3.222960511779e-03 -3.222960511779e-03 -3.222960511779e-03 -8.065931546663e-02 -8.065931546663e-02 -8.065931546663e-02 -2.357058872591e-01 -2.357058872591e-01 -2.357058872591e-01 -3.222960511779e-03 -3.222960511779e-03 -3.222960511779e-03 -8.065931546663e-02 -8.065931546663e-02 -8.065931546663e-02 -2.357058872591e-01 -2.357058872591e-01 -2.357058872591e-01 -6.932768053771e-02 -6.932768053771e-02 -6.932768053771e-02 1.366631494384e-02 1.366631494384e-02 1.366631494384e-02 8.828139853736e-02 8.828139853736e-02 8.828139853736e-02 -6.932768053771e-02 -6.932768053771e-02 -6.932768053771e-02 1.366631494384e-02 1.366631494384e-02 1.366631494384e-02 8.828139853736e-02 8.828139853736e-02 8.828139853736e-02 -2.745208655236e-02 -2.745208655236e-02 -2.745208655236e-02 1.312791622776e-02 1.312791622776e-02 1.312791622776e-02 4.838180589084e-02 4.838180589084e-02 4.838180589084e-02 -2.745208655236e-02 -2.745208655236e-02 -2.745208655236e-02 1.312791622776e-02 1.312791622776e-02 1.312791622776e-02 4.838180589084e-02 4.838180589084e-02 4.838180589084e-02 -1.655566716016e-03 -1.655566716016e-03 -1.655566716016e-03 -6.398836776836e-02 -6.398836776836e-02 -6.398836776836e-02 -1.832317567567e-01 -1.832317567567e-01 -1.832317567567e-01 -1.655566716016e-03 -1.655566716016e-03 -1.655566716016e-03 -6.398836776836e-02 -6.398836776836e-02 -6.398836776836e-02 -1.832317567567e-01 -1.832317567567e-01 -1.832317567567e-01
-7.125921555658e-03 -7.125921555658e-03 -7.125921555658e-03 -1.433704200829e+00 -1.433704200829e+00 -1.433704200829e+00 -3.921797066539e+00 -3.921797066539e+00 -3.921797066539e+00 -7.125921555658e-03 -7.125921555658e-03 -7.125921555658e-03 -1.433704200829e+00 -1.433704200829e+00 -1.433704200829e+00 -3.921797066539e+00 -3.921797066539e+00 -3.921797066539e+00 -6.687329338825e-03 -6.687329338825e-03 -6.687329338825e-03 -1.426755129159e+00 -1.426755129159e+00 -1.426755129159e+00 -3.902075259242e+00 -3.902075259242e+00 -3.902075259242e+00 -6.687329338825e-03 -6.687329338825e-03 -6.687329338825e-03 -1.426755129159e+00 -1.426755129159e+00 -1.426755129159e+00 -3.902075259242e+00 -3.902075259242e+00 -3.902075259242e+00 -1.819945580243e-03 -1.819945580243e-03 -1.819945580243e-03 -1.182331044875e+00 -1.182331044875e+00 -1.182331044875e+00 -3.220124686188e+00 -3.220124686188e+00 -3.220124686188e+00 -1.819945580243e-03 -1.819945580243e-03 -1.819945580243e-03 -1.182331044875e+00 -1.182331044875e+00 -1.182331044875e+00 -3.220124686188e+00 -3.220124686188e+00 -3.220124686188e+00 -1.767616779507e-03 -1.767616779507e-03 -1.767616779507e-03 -1.176676875109e+00 -1.176676875109e+00 -1.176676875109e+00 -3.204396878767e+00 -3.204396878767e+00 -3.204396878767e+00 -1.767616779507e-03 -1.767616779507e-03 -1.767616779507e-03 -1.176676875109e+00 -1.176676875109e+00 -1.176676875109e+00 -3.204396878767e+00 -3.204396878767e+00 -3.204396878767e+00 -1.336479047622e-01 -1.336479047622e-01 -1.336479047622e-01 2.908205645568e-02 2.908205645568e-02 2.908205645568e-02 1.506819862199e-01 1.506819862199e-01 1.506819862199e-01 -1.336479047622e-01 -1.336479047622e-01 -1.336479047622e-01 2.908205645568e-02 2.908205645568e-02 2.908205645568e-02 1.506819862199e-01 1.506819862199e-01 1.506819862199e-01 -4.833881646229e-02 -4.833881646229e-02 -4.833881646229e-02 1.315304764725e-02 1.315304764725e-02 1.315304764725e-02 5.131814960144e-02 5.131814960144e-02 5.131814960144e-02 -4.833881646229e-02 -4.833881646229e-02 -4.833881646229e-02 1.315304764725e-02 1.315304764725e-02 1.315304764725e-02 5.131814960144e-02 5.131814960144e-02 5.131814960144e-02 -1.961747941360e-03 -1.961747941360e-03 -1.961747941360e-03 -6.922602171863e-02 -6.922602171863e-02 -6.922602171863e-02 -1.959844556442e-01 -1.959844556442e-01 -1.959844556442e-01 -1.961747941360e-03 -1.961747941360e-03 -1.961747941360e-03 -6.922602171863e-02 -6.922602171863e-02 -6.922602171863e-02 -1.959844556442e-01 -1.959844556442e-01 -1.959844556442e-01 -5.912382969737e-02 -5.912382969737e-02 -5.912382969737e-02 2.005475202557e-02 2.005475202557e-02 2.005475202557e-02 7.312455064948e-02 7.312455064948e-02 7.312455064948e-02 -5.912382969737e-02 -5.912382969737e-02 -5.912382969737e-02 2.005475202557e-02 2.005475202557e-02 2.005475202557e-02 7.312455064948e-02 7.312455064948e-02 7.312455064948e-02 -2.272970889272e-02 -2.272970889272e-02 -2.272970889272e-02 9.913230312768e-03 9.913230312768e-03 9.913230312768e-03 2.657573238373e-02 2.657573238373e-02 2.657573238373e-02 -2.272970889272e-02 -2.272970889272e-02 -2.272970889272e-02 9.913230312768e-03 9.913230312768e-03 9.913230312768e-03 2.657573238373e-02 2.657573238373e-02 2.657573238373e-02 -9.633258989148e-04 -9.633258989148e-04 -9.633258989148e-04 -4.637040009751e-02 -4.637040009751e-02 -4.637040009751e-02 -1.302988982464e-01 -1.302988982464e-01 -1.302988982464e-01 -9.633258989148e-04 -9.633258989148e-04 -9.633258989148e-04 -4.637040009751e-02 -4.637040009751e-02 -4.637040009751e-02 -1.302988982464e-01 -1.302988982464e-01 -1.302988982464e-01
-4.359499855663e-03 -4.359499855663e-03 -4.359499855663e-03 1.699838940437e+00 1.699838940437e+00 1.699838940437e+00 5.766775416152e+00 5.766775416152e+00 5.766775416152e+00 -4.359499855663e-03 -4.359499855663e-03 -4.359499855663e-03 1.699838940437e+00 1.699838940437e+00 1.699838940437e+00 5.766775416152e+00 5.766775416152e+00 5.766775416152e+00 -4.023703439184e-03 -4.023703439184e-03 -4.023703439184e-03 1.697356506719e+00 1.697356506719e+00 1.697356506719e+00 5.756895779916e+00 5.756895779916e+00 5.756895779916e+00 -4.023703439184e-03 -4.023703439184e-03 -4.023703439184e-03 1.697356506719e+00 1.697356506719e+00 1.697356506719e+00 5.756895779916e+00 5.756895779916e+00 5.756895779916e+00 -7.523291396408e-04 -7.523291396408e-04 -7.523291396408e-04 1.429933827015e+00 1.429933827015e+00 1.429933827015e+00 4.843283483006e+00 4.843283483006e+00 4.843283483006e+00 -7.523291396408e-04 -7.523291396408e-04 -7.523291396408e-04 1.429933827015e+00 1.429933827015e+00 1.429933827015e+00 4.843283483006e+00 4.843283483006e+00 4.843283483006e+00 -7.210799808224e-04 -7.210799808224e-04 -7.210799808224e-04 1.427542461661e+00 1.427542461661e+00 1.427542461661e+00 4.833959176117e+00 4.833959176117e+00 4.833959176117e+00 -7.210799808224e-04 -7.210799808224e-04 -7.210799808224e-04 1.427542461661e+00 1.427542461661e+00 1.427542461661e+00 4.833959176117e+00 4.833959176117e+00 4.833959176117e+00 -1.177367870409e-01 -1.177367870409e-01 -1.177367870409e-01 3.241552323540e-02 3.241552323540e-02 3.241552323540e-02 1.090583363683e-01 1.090583363683e-01 1.090583363683e-01 -1.177367870409e-01 -1.177367870409e-01 -1.177367870409e-01 3.241552323540e-02 3.241552323540e-02 3.241552323540e-02 1.090583363683e-01 1.090583363683e-01 1.090583363683e-01 -4.200047897146e-02 -4.200047897146e-02 -4.200047897146e-02 5.843402931975e-03 5.843402931975e-03 5.843402931975e-03 1.579113515308e-02 1.579113515308e-02 1.579113515308e-02 -4.200047897146e-02 -4.200047897146e-02 -4.200047897146e-02 5.843402931975e-03 5.843402931975e-03 5.843402931975e-03 1.579113515308e-02 1.579113515308e-02 1.579113515308e-02 -1.346676547290e-03 -1.346676547290e-03 -1.346676547290e-03 4.373278155077e-02 4.373278155077e-02 4.373278155077e-02 1.593711520941e-01 1.593711520941e-01 1.593711520941e-01 -1.346676547290e-03 -1.346676547290e-03 -1.346676547290e-03 4.373278155077e-02 4.373278155077e-02 4.373278155077e-02 1.593711520941e-01 1.593711520941e-01 1.593711520941e-01 -5.116314417457e-02 -5.116314417457e-02 -5.116314417457e-02 1.426260900698e-02 1.426260900698e-02 1.426260900698e-02 3.578719296231e-02 3.578719296231e-02 3.578719296231e-02 -5.116314417457e-02 -5.116314417457e-02 -5.116314417457e-02 1.426260900698e-02 1.426260900698e-02 1.426260900698e-02 3.578719296231e-02 3.578719296231e-02 3.578719296231e-02 -1.922845146989e-02 -1.922845146989e-02 -1.922845146989e-02 1.807799195257e-03 1.807799195257e-03 1.807799195257e-03 -2.026897875406e-03 -2.026897875406e-03 -2.026897875406e-03 -1.922845146989e-02 -1.922845146989e-02 -1.922845146989e-02 1.807799195257e-03 1.807799195257e-03 1.807799195257e-03 -2.026897875406e-03 -2.026897875406e-03 -2.026897875406e-03 -6.363155901084e-04 -6.363155901084e-04 -6.363155901084e-04 3.861180048209e-02 3.861180048209e-02 3.861180048209e-02 1.357597231816e-01 1.357597231816e-01 1.357597231816e-01 -6.363155901084e-04 -6.363155901084e-04 -6.363155901084e-04 3.861180048209e-02 3.861180048209e-02 3.861180048209e-02 1.357597231816e-01 1.357597231816e-01 1.357597231816e-01
-3.021444350030e-03 -3.021444350030e-03 -3.021444350030e-03 1.453139248620e+00 1.453139248620e+00 1.453139248620e+00 4.808216060456e+00 4.808216060456e+00 4.808216060456e+00 -3.021444350030e-03 -3.021444350030e-03 -3.021444350030e-03 1.453139248620e+00 1.453139248620e+00 1.453139248620e+00 4.808216060456e+00 4.808216060456e+00 4.808216060456e+00 -2.752092321077e-03 -2.752092321077e-03 -2.752092321077e-03 1.446910035960e+00 1.446910035960e+00 1.446910035960e+00 4.786971046437e+00 4.786971046437e+00 4.786971046437e+00 -2.752092321077e-03 -2.752092321077e-03 -2.752092321077e-03 1.446910035960e+00 1.446910035960e+00 1.446910035960e+00 4.786971046437e+00 4.786971046437e+00 4.786971046437e+00 -3.892245996190e-04 -3.892245996190e-04 -3.892245996190e-04 1.213959273437e+00 1.213959273437e+00 1.213959273437e+00 4.005061637125e+00 4.005061637125e+00 4.005061637125e+00 -3.892245996190e-04 -3.892245996190e-04 -3.892245996190e-04 1.213959273437e+00 1.213959273437e+00 1.213959273437e+00 4.005061637125e+00 4.005061637125e+00 4.005061637125e+00 -3.683524828041e-04 -3.683524828041e-04 -3.683524828041e-04 1.208729203781e+00 1.208729203781e+00 1.208729203781e+00 3.987347850875e+00 3.987347850875e+00 3.987347850875e+00 -3.683524828041e-04 -3.683524828041e-04 -3.683524828041e-04 1.208729203781e+00 1.208729203781e+00 1.208729203781e+00 3.987347850875e+00 3.987347850875e+00 3.987347850875e+00 -1.046581266641e-01 -1.046581266641e-01 -1.046581266641e-01 2.831648731747e-02 2.831648731747e-02 2.831648731747e-02 6.685599911149e-02 6.685599911149e-02 6.685599911149e-02 -1.046581266641e-01 -1.046581266641e-01 -1.046581266641e-01 2.831648731747e-02 2.831648731747e-02 2.831648731747e-02 6.685599911149e-02 6.685599911149e-02 6.685599911149e-02 -3.697517977340e-02 -3.697517977340e-02 -3.697517977340e-02 1.694378543689e-03 1.694378543689e-03 1.694378543689e-03 -8.850619812591e-04 -8.850619812591e-04 -8.850619812591e-04 -3.697517977340e-02 -3.697517977340e-02 -3.697517977340e-02 1.694378543689e-03 1.694378543689e-03 1.694378543689e-03 -8.850619812591e-04 -8.850619812591e-04 -8.850619812591e-04 -9.982384297001e-04 -9.982384297001e-04 -9.982384297001e-04 6.068267136108e-02 6.068267136108e-02 6.068267136108e-02 2.082636394956e-01 2.082636394956e-01 2.082636394956e-01 -9.982384297001e-04 -9.982384297001e-04 -9.982384297001e-04 6.068267136108e-02 6.068267136108e-02 6.068267136108e-02 2.082636394956e-01 2.082636394956e-01 2.082636394956e-01 -4.479957979004e-02 -4.479957979004e-02 -4.479957979004e-02 8.213862478452e-03 8.213862478452e-03 8.213862478452e-03 9.766596205619e-03 9.766596205619e-03 9.766596205619e-03 -4.479957979004e-02 -4.479957979004e-02 -4.479957979004e-02 8.213862478452e-03 8.213862478452e-03 8.213862478452e-03 9.766596205619e-03 9.766596205619e-03 9.766596205619e-03 -1.654851948353e-02 -1.654851948353e-02 -1.654851948353e-02 -2.409937276860e-03 -2.409937276860e-03 -2.409937276860e-03 -1.319733597218e-02 -1.319733597218e-02 -1.319733597218e-02 -1.654851948353e-02 -1.654851948353e-02 -1.654851948353e-02 -2.409937276860e-03 -2.409937276860e-03 -2.409937276860e-03 -1.319733597218e-02 -1.319733597218e-02 -1.319733597218e-02 -4.566422466255e-04 -4.566422466255e-04 -4.566422466255e-04 4.213599490255e-02 4.213599490255e-02 4.213599490255e-02 1.432338834635e-01 1.432338834635e-01 1.432338834635e-01 -4.566422466255e-04 -4.566422466255e-04 -4.566422466255e-04 4.213599490255e-02 4.213599490255e-02 4.213599490255e-02 1.432338834635e-01 1.432338834635e-01 1.432338834635e-01
4.715137218254e-01 4.715137218254e-01 4.715137218254e-01 4.715137218254e-01 4.715137218254e-01 4.715137218254e-01 4.715137218254e-01 4.715137218254e-01 4.715137218254e-01 5.272680364245e+00 5.272680364245e+00 5.272680364245e+00 5.272680364245e+00 5.272680364245e+00 5.272680364245e+00 5.272680364245e+00 5.272680364245e+00 5.272680364245e+00 4.615962242053e-01 4.615962242053e-01 4.615962242053e-01 4.615962242053e-01 4.615962242053e-01 4.615962242053e-01 4.615962242053e-01 4.615962242053e-01 4.615962242053e-01 5.252372246551e+00 5.252372246551e+00 5.252372246551e+00 5.252372246551e+00 5.252372246551e+00 5.252372246551e+00 5.252372246551e+00 5.252372246551e+00 5.252372246551e+00 2.491043316613e-01 2.491043316613e-01 2.491043316613e-01 2.491043316613e-01 2.491043316613e-01 2.491043316613e-01 2.491043316613e-01 2.491043316613e-01 2.491043316613e-01 4.474192516691e+00 4.474192516691e+00 4.474192516691e+00 4.474192516691e+00 4.474192516691e+00 4.474192516691e+00 4.474192516691e+00 4.474192516691e+00 4.474192516691e+00 2.430734419010e-01 2.430734419010e-01 2.430734419010e-01 2.430734419010e-01 2.430734419010e-01 2.430734419010e-01 2.430734419010e-01 2.430734419010e-01 2.430734419010e-01 4.458934460455e+00 4.458934460455e+00 4.458934460455e+00 4.458934460455e+00 4.458934460455e+00 4.458934460455e+00 4.458934460455e+00 4.458934460455e+00 4.458934460455e+00 4.229736694071e-02 4.229736694071e-02 4.229736694071e-02 4.229736694071e-02 4.229736694071e-02 4.229736694071e-02 4.229736694071e-02 4.229736694071e-02 4.229736694071e-02 1.803124161961e-01 1.803124161961e-01 1.803124161961e-01 1.803124161961e-01 1.803124161961e-01 1.803124161961e-01 1.803124161961e-01 1.803124161961e-01 1.803124161961e-01 2.737561322512e-02 2.737561322512e-02 2.737561322512e-02 2.737561322512e-02 2.737561322512e-02 2.737561322512e-02 2.737561322512e-02 2.737561322512e-02 2.737561322512e-02 4.606283507456e-02 4.606283507456e-02 4.606283507456e-02 4.606283507456e-02 4.606283507456e-02 4.606283507456e-02 4.606283507456e-02 4.606283507456e-02 4.606283507456e-02 4.514485100458e-02 4.514485100458e-02 4.514485100458e-02 4.514485100458e-02 4.514485100458e-02 4.514485100458e-02 4.514485100458e-02 4.514485100458e-02 4.514485100458e-02 1.909695654307e-01 1.909695654307e-01 1.909695654307e-01 1.909695654307e-01 1.909695654307e-01 1.909695654307e-01 1.909695654307e-01 1.909695654307e-01 1.909695654307e-01 1.503312845794e-02 1.503312845794e-02 1.503312845794e-02 1.503312845794e-02 1.503312845794e-02 1.503312845794e-02 1.503312845794e-02 1.503312845794e-02 1.503312845794e-02 8.541558297461e-02 8.541558297461e-02 8.541558297461e-02 8.541558297461e-02 8.541558297461e-02 8.541558297461e-02 8.541558297461e-02 8.541558297461e-02 8.541558297461e-02 1.150953887620e-02 1.150953887620e-02 1.150953887620e-02 1.150953887620e-02 1.150953887620e-02 1.150953887620e-02 1.150953887620e-02 1.150953887620e-02 1.150953887620e-02 2.465665390106e-02 2.465665390106e-02 2.465665390106e-02 2.465665390106e-02 2.465665390106e-02 2.465665390106e-02 2.465665390106e-02 2.465665390106e-02 2.465665390106e-02 2.427867070528e-02 2.427867070528e-02 2.427867070528e-02 2.427867070528e-02 2.427867070528e-02 2.427867070528e-02 2.427867070528e-02 2.427867070528e-02 2.427867070528e-02 1.285757249146e-01 1.285757249146e-01 1.285757249146e-01 1.285757249146e-01 1.285757249146e-01 1.285757249146e-01 1.285757249146e-01 1.285757249146e-01 1.285757249146e-01
2.073051984909e-01 2.073051984909e-01 2.073051984909e-01 2.073051984909e-01 2.073051984909e-01 2.073051984909e-01 2.073051984909e-01 2.073051984909e-01 2.073051984909e-01 6.324540972260e-01 6.324540972260e-01 6.324540972260e-01 6.324540972260e-01 6.324540972260e-01 6.324540972260e-01 6.324540972260e-01 6.324540972260e-01 6.324540972260e-01 2.039704333262e-01 2.039704333262e-01 2.039704333262e-01 2.039704333262e-01 2.039704333262e-01 2.039704333262e-01 2.039704333262e-01 2.039704333262e-01 2.039704333262e-01 6.279616218572e-01 6.279616218572e-01 6.279616218572e-01 6.279616218572e-01 6.279616218572e-01 6.279616218572e-01 6.279616218572e-01 6.279616218572e-01 6.279616218572e-01 1.350583875825e-01 1.350583875825e-01 1.350583875825e-01 1.350583875825e-01 1.350583875825e-01 1.350583875825e-01 1.350583875825e-01 1.350583875825e-01 1.350583875825e-01 5.103891299274e-01 5.103891299274e-01 5.103891299274e-01 5.103891299274e-01 5.103891299274e-01 5.103891299274e-01 5.103891299274e-01 5.103891299274e-01 5.103891299274e-01 1.334655473934e-01 1.334655473934e-01 1.334655473934e-01 1.334655473934e-01 1.334655473934e-01 1.334655473934e-01 1.334655473934e-01 1.334655473934e-01 1.334655473934e-01 5.076918205563e-01 5.076918205563e-01 5.076918205563e-01 5.076918205563e-01 5.076918205563e-01 5.076918205563e-01 5.076918205563e-01 5.076918205563e-01 5.076918205563e-01 4.256953268709e-02 4.256953268709e-02 4.256953268709e-02 4.256953268709e-02 4.256953268709e-02 4.256953268709e-02 4.256953268709e-02 4.256953268709e-02 4.256953268709e-02 1.507289041609e-01 1.507289041609e-01 1.507289041609e-01 1.507289041609e-01 1.507289041609e-01 1.507289041609e-01 1.507289041609e-01 1.507289041609e-01 1.507289041609e-01 2.469714101274e-02 2.469714101274e-02 2.469714101274e-02 2.469714101274e-02 2.469714101274e-02 2.469714101274e-02 2.469714101274e-02 2.469714101274e-02 2.469714101274e-02 3.764825110076e-02 3.764825110076e-02 3.764825110076e-02 3.764825110076e-02 3.764825110076e-02 3.764825110076e-02 3.764825110076e-02 3.764825110076e-02 3.764825110076e-02 1.893505444503e-02 1.893505444503e-02 1.893505444503e-02 1.893505444503e-02 1.893505444503e-02 1.893505444503e-02 1.893505444503e-02 1.893505444503e-02 1.893505444503e-02 3.702661424207e-02 3.702661424207e-02 3.702661424207e-02 3.702661424207e-02 3.702661424207e-02 3.702661424207e-02 3.702661424207e-02 3.702661424207e-02 3.702661424207e-02 1.599053119739e-02 1.599053119739e-02 1.599053119739e-02 1.599053119739e-02 1.599053119739e-02 1.599053119739e-02 1.599053119739e-02 1.599053119739e-02 1.599053119739e-02 6.918806216193e-02 6.918806216193e-02 6.918806216193e-02 6.918806216193e-02 6.918806216193e-02 6.918806216193e-02 6.918806216193e-02 6.918806216193e-02 6.918806216193e-02 1.029502771094e-02 1.029502771094e-02 1.029502771094e-02 1.029502771094e-02 1.029502771094e-02 1.029502771094e-02 1.029502771094e-02 1.029502771094e-02 1.029502771094e-02 1.930762698422e-02 1.930762698422e-02 1.930762698422e-02 1.930762698422e-02 1.930762698422e-02 1.930762698422e-02 1.930762698422e-02 1.930762698422e-02 1.930762698422e-02 1.054361038459e-02 1.054361038459e-02 1.054361038459e-02 1.054361038459e-02 1.054361038459e-02 1.054361038459e-02 1.054361038459e-02 1.054361038459e-02 1.054361038459e-02 2.261268482328e-02 2.261268482328e-02 2.261268482328e-02 2.261268482328e-02 2.261268482328e-02 2.261268482328e-02 2.261268482328e-02 2.261268482328e-02 2.261268482328e-02
6.337837431177e-02 6.337837431177e-02 6.337837431177e-02 -1.406892994450e-01 -1.406892994450e-01 -1.406892994450e-01 -3.447569732019e-01 -3.447569732019e-01 -3.447569732019e-01 1.088222485597e-01 1.088222485597e-01 1.088222485597e-01 -2.473106809283e+00 -2.473106809283e+00 -2.473106809283e+00 -5.055035867126e+00 -5.055035867126e+00 -5.055035867126e+00 6.193133340349e-02 6.193133340349e-02 6.193133340349e-02 -1.379011119974e-01 -1.379011119974e-01 -1.379011119974e-01 -3.377335573983e-01 -3.377335573983e-01 -3.377335573983e-01 1.073031017302e-01 1.073031017302e-01 1.073031017302e-01 -2.465231470680e+00 -2.465231470680e+00 -2.465231470680e+00 -5.037766043090e+00 -5.037766043090e+00 -5.037766043090e+00 3.666419851109e-02 3.666419851109e-02 3.666419851109e-02 -6.955586806400e-02 -6.955586806400e-02 -6.955586806400e-02 -1.757759346391e-01 -1.757759346391e-01 -1.757759346391e-01 7.722725465980e-02 7.722725465980e-02 7.722725465980e-02 -2.121255376356e+00 -2.121255376356e+00 -2.121255376356e+00 -4.319738007371e+00 -4.319738007371e+00 -4.319738007371e+00 3.619712730817e-02 3.619712730817e-02 3.619712730817e-02 -6.724102998828e-02 -6.724102998828e-02 -6.724102998828e-02 -1.706791872847e-01 -1.706791872847e-01 -1.706791872847e-01 7.661701713447e-02 7.661701713447e-02 7.661701713447e-02 -2.114541704526e+00 -2.114541704526e+00 -2.114541704526e+00 -4.305700426186e+00 -4.305700426186e+00 -4.305700426186e+00 4.159889051603e-02 4.159889051603e-02 4.159889051603e-02 4.124965230369e-02 4.124965230369e-02 4.124965230369e-02 4.090041409135e-02 4.090041409135e-02 4.090041409135e-02 1.284029361253e-01 1.284029361253e-01 1.284029361253e-01 1.024481960899e-01 1.024481960899e-01 1.024481960899e-01 7.649345605450e-02 7.649345605450e-02 7.649345605450e-02 2.236836797852e-02 2.236836797852e-02 2.236836797852e-02 1.986474535522e-02 1.986474535522e-02 1.986474535522e-02 1.736112273192e-02 1.736112273192e-02 1.736112273192e-02 3.165096121064e-02 3.165096121064e-02 3.165096121064e-02 2.444502427869e-02 2.444502427869e-02 2.444502427869e-02 1.723908734673e-02 1.723908734673e-02 1.723908734673e-02 8.109652700957e-03 8.109652700957e-03 8.109652700957e-03 -1.040794645085e-02 -1.040794645085e-02 -1.040794645085e-02 -2.892554560267e-02 -2.892554560267e-02 -2.892554560267e-02 1.079878609105e-02 1.079878609105e-02 1.079878609105e-02 -7.928660357878e-02 -7.928660357878e-02 -7.928660357878e-02 -1.693719932486e-01 -1.693719932486e-01 -1.693719932486e-01 1.595112759295e-02 1.595112759295e-02 1.595112759295e-02 1.641012716046e-02 1.641012716046e-02 1.641012716046e-02 1.686912672797e-02 1.686912672797e-02 1.686912672797e-02 5.753999093799e-02 5.753999093799e-02 5.753999093799e-02 4.360219491968e-02 4.360219491968e-02 4.360219491968e-02 2.966439890137e-02 2.966439890137e-02 2.966439890137e-02 9.219169497283e-03 9.219169497283e-03 9.219169497283e-03 8.073984807826e-03 8.073984807826e-03 8.073984807826e-03 6.928800118369e-03 6.928800118369e-03 6.928800118369e-03 1.566319221510e-02 1.566319221510e-02 1.566319221510e-02 1.116646137212e-02 1.116646137212e-02 1.116646137212e-02 6.669730529143e-03 6.669730529143e-03 6.669730529143e-03 4.381469365244e-03 4.381469365244e-03 4.381469365244e-03 -5.567131304774e-03 -5.567131304774e-03 -5.567131304774e-03 -1.551573197479e-02 -1.551573197479e-02 -1.551573197479e-02 6.140591185063e-03 6.140591185063e-03 6.140591185063e-03 -5.507697567972e-02 -5.507697567972e-02 -5.507697567972e-02 -1.162945425445e-01 -1.162945425445e-01 -1.162945425445e-01
2.241562796553e-02 2.241562796553e-02 2.241562796553e-02 -2.549187278225e-01 -2.549187278225e-01 -2.549187278225e-01 -5.322530836105e-01 -5.322530836105e-01 -5.322530836105e-01 2.740540548018e-02 2.740540548018e-02 2.740540548018e-02 -8.801676321385e-01 -8.801676321385e-01 -8.801676321385e-01 -1.787740669757e+00 -1.787740669757e+00 -1.787740669757e+00 2.160506578864e-02 2.160506578864e-02 2.160506578864e-02 -2.519429855177e-01 -2.519429855177e-01 -2.519429855177e-01 -5.254910368240e-01 -5.254910368240e-01 -5.254910368240e-01 2.665267033786e-02 2.665267033786e-02 2.665267033786e-02 -8.753107569411e-01 -8.753107569411e-01 -8.753107569411e-01 -1.777274184220e+00 -1.777274184220e+00 -1.777274184220e+00 9.923365326746e-03 9.923365326746e-03 9.923365326746e-03 -1.777791680569e-01 -1.777791680569e-01 -1.777791680569e-01 -3.654817014406e-01 -3.654817014406e-01 -3.654817014406e-01 1.497831095311e-02 1.497831095311e-02 1.497831095311e-02 -7.281379175084e-01 -7.281379175084e-01 -7.281379175084e-01 -1.471254145970e+00 -1.471254145970e+00 -1.471254145970e+00 9.755931754195e-03 9.755931754195e-03 9.755931754195e-03 -1.758084917047e-01 -1.758084917047e-01 -1.758084917047e-01 -3.613729151635e-01 -3.613729151635e-01 -3.613729151635e-01 1.479566470326e-02 1.479566470326e-02 1.479566470326e-02 -7.245485690763e-01 -7.245485690763e-01 -7.245485690763e-01 -1.463892802856e+00 -1.463892802856e+00 -1.463892802856e+00 4.012453514569e-02 4.012453514569e-02 4.012453514569e-02 3.645703883359e-02 3.645703883359e-02 3.645703883359e-02 3.278954252149e-02 3.278954252149e-02 3.278954252149e-02 1.108976885111e-01 1.108976885111e-01 1.108976885111e-01 5.115086503637e-02 5.115086503637e-02 5.115086503637e-02 -8.595958438348e-03 -8.595958438348e-03 -8.595958438348e-03 2.037328199901e-02 2.037328199901e-02 2.037328199901e-02 1.388749347842e-02 1.388749347842e-02 1.388749347842e-02 7.401704957835e-03 7.401704957835e-03 7.401704957835e-03 2.716513298051e-02 2.716513298051e-02 2.716513298051e-02 1.144045580014e-02 1.144045580014e-02 1.144045580014e-02 -4.284221380224e-03 -4.284221380224e-03 -4.284221380224e-03 4.076500619063e-03 4.076500619063e-03 4.076500619063e-03 -1.821133011988e-02 -1.821133011988e-02 -1.821133011988e-02 -4.049916085883e-02 -4.049916085883e-02 -4.049916085883e-02 4.407315021336e-03 4.407315021336e-03 4.407315021336e-03 -4.452163380977e-02 -4.452163380977e-02 -4.452163380977e-02 -9.345058264088e-02 -9.345058264088e-02 -9.345058264088e-02 1.552752722941e-02 1.552752722941e-02 1.552752722941e-02 1.483302127746e-02 1.483302127746e-02 1.483302127746e-02 1.413851532550e-02 1.413851532550e-02 1.413851532550e-02 4.873975309749e-02 4.873975309749e-02 4.873975309749e-02 1.806728950082e-02 1.806728950082e-02 1.806728950082e-02 -1.260517409584e-02 -1.260517409584e-02 -1.260517409584e-02 8.310189087030e-03 8.310189087030e-03 8.310189087030e-03 5.332931151160e-03 5.332931151160e-03 5.332931151160e-03 2.355673215290e-03 2.355673215290e-03 2.355673215290e-03 1.304220209295e-02 1.304220209295e-02 1.304220209295e-02 3.644064756046e-03 3.644064756046e-03 3.644064756046e-03 -5.754072580860e-03 -5.754072580860e-03 -5.754072580860e-03 2.116443258568e-03 2.116443258568e-03 2.116443258568e-03 -1.052430743046e-02 -1.052430743046e-02 -1.052430743046e-02 -2.316505811949e-02 -2.316505811949e-02 -2.316505811949e-02 2.363342588902e-03 2.363342588902e-03 2.363342588902e-03 -2.801067076267e-02 -2.801067076267e-02 -2.801067076267e-02 -5.838468411424e-02 -5.838468411424e-02 -5.838468411424e-02
1.016591573655e-02 1.016591573655e-02 1.016591573655e-02 -1.637537663719e-02 -1.637537663719e-02 -1.637537663719e-02 4.581405322367e-02 4.581405322367e-02 4.581405322367e-02 1.024127041304e-02 1.024127041304e-02 1.024127041304e-02 1.613977262550e+00 1.613977262550e+00 1.613977262550e+00 4.484032539072e+00 4.484032539072e+00 4.484032539072e+00 9.625439059510e-03 9.625439059510e-03 9.625439059510e-03 -1.703262030075e-02 -1.703262030075e-02 -1.703262030075e-02 4.314906945344e-02 4.314906945344e-02 4.314906945344e-02 9.763934588722e-03 9.763934588722e-03 9.763934588722e-03 1.609970174794e+00 1.609970174794e+00 1.609970174794e+00 4.472058909419e+00 4.472058909419e+00 4.472058909419e+00 3.078957767434e-03 3.078957767434e-03 3.078957767434e-03 -3.060617981109e-02 -3.060617981109e-02 -3.060617981109e-02 -1.957759428799e-02 -1.957759428799e-02 -1.957759428799e-02 3.732037460514e-03 3.732037460514e-03 3.732037460514e-03 1.404547652674e+00 1.404547652674e+00 1.404547652674e+00 3.886230779096e+00 3.886230779096e+00 3.886230779096e+00 3.002900695942e-03 3.002900695942e-03 3.002900695942e-03 -3.144899614798e-02 -3.144899614798e-02 -3.144899614798e-02 -2.248037099674e-02 -2.248037099674e-02 -2.248037099674e-02 3.658190077981e-03 3.658190077981e-03 3.658190077981e-03 1.400791190008e+00 1.400791190008e+00 1.400791190008e+00 3.875263844003e+00 3.875263844003e+00 3.875263844003e+00 3.842783421184e-02 3.842783421184e-02 3.842783421184e-02 2.798744784446e-02 2.798744784446e-02 2.798744784446e-02 1.692891650719e-02 1.692891650719e-02 1.692891650719e-02 9.682853111450e-02 9.682853111450e-02 9.682853111450e-02 9.730969229632e-03 9.730969229632e-03 9.730969229632e-03 -7.228282389023e-02 -7.228282389023e-02 -7.228282389023e-02 1.864918529412e-02 1.864918529412e-02 1.864918529412e-02 7.974660701757e-03 7.974660701757e-03 7.974660701757e-03 -2.377848250058e-03 -2.377848250058e-03 -2.377848250058e-03 2.368903411370e-02 2.368903411370e-02 2.368903411370e-02 2.221982860476e-03 2.221982860476e-03 2.221982860476e-03 -1.763258170100e-02 -1.763258170100e-02 -1.763258170100e-02 2.400933098850e-03 2.400933098850e-03 2.400933098850e-03 -2.977796194402e-03 -2.977796194402e-03 -2.977796194402e-03 -5.249058122750e-04 -5.249058122750e-04 -5.249058122750e-04 2.325461947771e-03 2.325461947771e-03 2.325461947771e-03 4.129203521659e-02 4.129203521659e-02 4.129203521659e-02 1.231829722845e-01 1.231829722845e-01 1.231829722845e-01 1.493262477606e-02 1.493262477606e-02 1.493262477606e-02 1.115092809341e-02 1.115092809341e-02 1.115092809341e-02 6.885105922788e-03 6.885105922788e-03 6.885105922788e-03 4.187559398535e-02 4.187559398535e-02 4.187559398535e-02 -5.383987160819e-04 -5.383987160819e-04 -5.383987160819e-04 -3.989959264652e-02 -3.989959264652e-02 -3.989959264652e-02 7.539190314411e-03 7.539190314411e-03 7.539190314411e-03 2.728149089308e-03 2.728149089308e-03 2.728149089308e-03 -1.930294586784e-03 -1.930294586784e-03 -1.930294586784e-03 1.108259388473e-02 1.108259388473e-02 1.108259388473e-02 -1.004377348049e-03 -1.004377348049e-03 -1.004377348049e-03 -1.198813274193e-02 -1.198813274193e-02 -1.198813274193e-02 1.196186310355e-03 1.196186310355e-03 1.196186310355e-03 -2.092693497383e-03 -2.092693497383e-03 -2.092693497383e-03 -1.203593733833e-03 -1.203593733833e-03 -1.203593733833e-03 1.183808983340e-03 1.183808983340e-03 1.183808983340e-03 3.036784420111e-02 3.036784420111e-02 3.036784420111e-02 8.892146730084e-02 8.892146730084e-02 8.892146730084e-02
5.760625050233e-03 5.760625050233e-03 5.760625050233e-03 2.379254247426e-01 2.379254247426e-01 2.379254247426e-01 6.803834339476e-01 6.803834339476e-01 6.803834339476e-01 5.285571808583e-03 5.285571808583e-03 5.285571808583e-03 9.876780123397e-01 9.876780123397e-01 9.876780123397e-01 2.698731525463e+00 2.698731525463e+00 2.698731525463e+00 5.362000227518e-03 5.362000227518e-03 5.362000227518e-03 2.356259886277e-01 2.356259886277e-01 2.356259886277e-01 6.735428544985e-01 6.735428544985e-01 6.735428544985e-01 4.940415702445e-03 4.940415702445e-03 4.940415702445e-03 9.831229491827e-01 9.831229491827e-01 9.831229491827e-01 2.685801353768e+00 2.685801353768e+00 2.685801353768e+00 1.177548203449e-03 1.177548203449e-03 1.177548203449e-03 1.756782222104e-01 1.756782222104e-01 1.756782222104e-01 4.956654026330e-01 4.956654026330e-01 4.956654026330e-01 1.228927610071e-03 1.228927610071e-03 1.228927610071e-03 8.355972027036e-01 8.355972027036e-01 8.355972027036e-01 2.272042272336e+00 2.272042272336e+00 2.272042272336e+00 1.135313721967e-03 1.135313721967e-03 1.135313721967e-03 1.738240940740e-01 1.738240940740e-01 1.738240940740e-01 4.903741214347e-01 4.903741214347e-01 4.903741214347e-01 1.190468108705e-03 1.190468108705e-03 1.190468108705e-03 8.318350337455e-01 8.318350337455e-01 8.318350337455e-01 2.261593298455e+00 2.261593298455e+00 2.261593298455e+00 3.664558509373e-02 3.664558509373e-02 3.664558509373e-02 1.731217387660e-02 1.731217387660e-02 1.731217387660e-02 -3.313677978723e-03 -3.313677978723e-03 -3.313677978723e-03 8.530908829992e-02 8.530908829992e-02 8.530908829992e-02 -1.592900880843e-02 -1.592900880843e-02 -1.592900880843e-02 -9.936383661847e-02 -9.936383661847e-02 -9.936383661847e-02 1.714212548341e-02 1.714212548341e-02 1.714212548341e-02 3.035160089393e-03 3.035160089393e-03 3.035160089393e-03 -9.705927181969e-03 -9.705927181969e-03 -9.705927181969e-03 2.091816764245e-02 2.091816764245e-02 2.091816764245e-02 -2.373872581240e-03 -2.373872581240e-03 -2.373872581240e-03 -2.037072182720e-02 -2.037072182720e-02 -2.037072182720e-02 1.596785827083e-03 1.596785827083e-03 1.596785827083e-03 1.240853505590e-02 1.240853505590e-02 1.240853505590e-02 3.869383307720e-02 3.869383307720e-02 3.869383307720e-02 1.461397013271e-03 1.461397013271e-03 1.461397013271e-03 4.236939674671e-02 4.236939674671e-02 4.236939674671e-02 1.203691229960e-01 1.203691229960e-01 1.203691229960e-01 1.426235285831e-02 1.426235285831e-02 1.426235285831e-02 6.432411496927e-03 6.432411496927e-03 6.432411496927e-03 -2.400242868373e-03 -2.400242868373e-03 -2.400242868373e-03 3.639412080465e-02 3.639412080465e-02 3.639412080465e-02 -1.014152171280e-02 -1.014152171280e-02 -1.014152171280e-02 -4.654881826575e-02 -4.654881826575e-02 -4.654881826575e-02 6.876974356250e-03 6.876974356250e-03 6.876974356250e-03 7.451955019739e-04 7.451955019739e-04 7.451955019739e-04 -4.697053485886e-03 -4.697053485886e-03 -4.697053485886e-03 9.570962951231e-03 9.570962951231e-03 9.570962951231e-03 -2.546134476970e-03 -2.546134476970e-03 -2.546134476970e-03 -1.117049971824e-02 -1.117049971824e-02 -1.117049971824e-02 7.657187196998e-04 7.657187196998e-04 7.657187196998e-04 7.280425876262e-03 7.280425876262e-03 7.280425876262e-03 2.264068626676e-02 2.264068626676e-02 2.264068626676e-02 7.110301943930e-04 7.110301943930e-04 7.110301943930e-04 2.731889917161e-02 2.731889917161e-02 2.731889917161e-02 7.717305544867e-02 7.717305544867e-02 7.717305544867e-02
3.787724463593e-03 3.787724463593e-03 3.787724463593e-03 1.231163492303e-01 1.231163492303e-01 1.231163492303e-01 3.025402432669e-01 3.025402432669e-01 3.025402432669e-01 3.338164022183e-03 3.338164022183e-03 3.338164022183e-03 -1.086996875840e+00 -1.086996875840e+00 -1.086996875840e+00 -3.698639621286e+00 -3.698639621286e+00 -3.698639621286e+00 3.475867924956e-03 3.475867924956e-03 3.475867924956e-03 1.228575670787e-01 1.228575670787e-01 1.228575670787e-01 3.023744757996e-01 3.023744757996e-01 3.023744757996e-01 3.070380490167e-03 3.070380490167e-03 3.070380490167e-03 -1.085088565831e+00 -1.085088565831e+00 -1.085088565831e+00 -3.691333099980e+00 -3.691333099980e+00 -3.691333099980e+00 5.609951627758e-04 5.609951627758e-04 5.609951627758e-04 1.102460857011e-01 1.102460857011e-01 1.102460857011e-01 2.810131139104e-01 2.810131139104e-01 2.810131139104e-01 5.336225296126e-04 5.336225296126e-04 5.336225296126e-04 -9.571516149935e-01 -9.571516149935e-01 -9.571516149935e-01 -3.246163809971e+00 -3.246163809971e+00 -3.246163809971e+00 5.341463087527e-04 5.341463087527e-04 5.341463087527e-04 1.101753272470e-01 1.101753272470e-01 1.101753272470e-01 2.814282981208e-01 2.814282981208e-01 2.814282981208e-01 5.099475549632e-04 5.099475549632e-04 5.099475549632e-04 -9.552760932828e-01 -9.552760932828e-01 -9.552760932828e-01 -3.239102954019e+00 -3.239102954019e+00 -3.239102954019e+00 3.485266785072e-02 3.485266785072e-02 3.485266785072e-02 6.412197891609e-03 6.412197891609e-03 6.412197891609e-03 -2.276800859753e-02 -2.276800859753e-02 -2.276800859753e-02 7.573630806943e-02 7.573630806943e-02 7.573630806943e-02 -2.657212030343e-02 -2.657212030343e-02 -2.657212030343e-02 -9.326720121520e-02 -9.326720121520e-02 -9.326720121520e-02 1.581128437599e-02 1.581128437599e-02 1.581128437599e-02 -6.428815735605e-04 -6.428815735605e-04 -6.428815735605e-04 -1.394478369811e-02 -1.394478369811e-02 -1.394478369811e-02 1.865774825565e-02 1.865774825565e-02 1.865774825565e-02 -3.691821688465e-03 -3.691821688465e-03 -3.691821688465e-03 -1.637122655975e-02 -1.637122655975e-02 -1.637122655975e-02 1.154643964318e-03 1.154643964318e-03 1.154643964318e-03 8.513631762327e-03 8.513631762327e-03 8.513631762327e-03 2.253271572601e-02 2.253271572601e-02 2.253271572601e-02 1.025773523463e-03 1.025773523463e-03 1.025773523463e-03 -1.978388232633e-02 -1.978388232633e-02 -1.978388232633e-02 -7.538883653402e-02 -7.538883653402e-02 -7.538883653402e-02 1.356620409998e-02 1.356620409998e-02 1.356620409998e-02 1.857443600435e-03 1.857443600435e-03 1.857443600435e-03 -1.056028983628e-02 -1.056028983628e-02 -1.056028983628e-02 3.193469270468e-02 3.193469270468e-02 3.193469270468e-02 -1.245480981172e-02 -1.245480981172e-02 -1.245480981172e-02 -3.781409083772e-02 -3.781409083772e-02 -3.781409083772e-02 6.301016400866e-03 6.301016400866e-03 6.301016400866e-03 -5.528161003521e-04 -5.528161003521e-04 -5.528161003521e-04 -5.813098189109e-03 -5.813098189109e-03 -5.813098189109e-03 8.374213208948e-03 8.374213208948e-03 8.374213208948e-03 -2.201369333879e-03 -2.201369333879e-03 -2.201369333879e-03 -6.708877809853e-03 -6.708877809853e-03 -6.708877809853e-03 5.354972676175e-04 5.354972676175e-04 5.354972676175e-04 5.347631930131e-03 5.347631930131e-03 5.347631930131e-03 1.430674753584e-02 1.430674753584e-02 1.430674753584e-02 4.804192761675e-04 4.804192761675e-04 4.804192761675e-04 -1.625247044367e-02 -1.625247044367e-02 -1.625247044367e-02 -5.949449794642e-02 -5.949449794642e-02 -5.949449794642e-02
2.723239104103e-03 2.723239104103e-03 2.723239104103e-03 -1.886626701369e-01 -1.886626701369e-01 -1.886626701369e-01 -6.667639263301e-01 -6.667639263301e-01 -6.667639263301e-01 2.358041413745e-03 2.358041413745e-03 2.358041413745e-03 -1.009655760844e+00 -1.009655760844e+00 -1.009655760844e+00 -3.333545365773e+00 -3.333545365773e+00 -3.333545365773e+00 2.469858994450e-03 2.469858994450e-03 2.469858994450e-03 -1.868541307529e-01 -1.868541307529e-01 -1.868541307529e-01 -6.603823989569e-01 -6.603823989569e-01 -6.603823989569e-01 2.141290973155e-03 2.141290973155e-03 2.141290973155e-03 -1.005509991430e+00 -1.005509991430e+00 -1.005509991430e+00 -3.319465750472e+00 -3.319465750472e+00 -3.319465750472e+00 3.178587945930e-04 3.178587945930e-04 3.178587945930e-04 -1.425539355984e-01 -1.425539355984e-01 -1.425539355984e-01 -5.012426907123e-01 -5.012426907123e-01 -5.012426907123e-01 2.874479430528e-04 2.874479430528e-04 2.874479430528e-04 -8.671114539651e-01 -8.671114539651e-01 -8.671114539651e-01 -2.853181720091e+00 -2.853181720091e+00 -2.853181720091e+00 2.993014559297e-04 2.993014559297e-04 2.993014559297e-04 -1.410342338080e-01 -1.410342338080e-01 -1.410342338080e-01 -4.959264971998e-01 -4.959264971998e-01 -4.959264971998e-01 2.713524476604e-04 2.713524476604e-04 2.713524476604e-04 -8.635727210768e-01 -8.635727210768e-01 -8.635727210768e-01 -2.841251392036e+00 -2.841251392036e+00 -2.841251392036e+00 3.309239439907e-02 3.309239439907e-02 3.309239439907e-02 -3.091146619291e-03 -3.091146619291e-03 -3.091146619291e-03 -3.740504960809e-02 -3.740504960809e-02 -3.740504960809e-02 6.768294689069e-02 6.768294689069e-02 6.768294689069e-02 -2.662210877378e-02 -2.662210877378e-02 -2.662210877378e-02 -6.774106109275e-02 -6.774106109275e-02 -6.774106109275e-02 1.462624577626e-02 1.462624577626e-02 1.462624577626e-02 -3.228101734008e-03 -3.228101734008e-03 -3.228101734008e-03 -1.581451960571e-02 -1.581451960571e-02 -1.581451960571e-02 1.677813194742e-02 1.677813194742e-02 1.677813194742e-02 -3.696466902504e-03 -3.696466902504e-03 -3.696466902504e-03 -1.132464211620e-02 -1.132464211620e-02 -1.132464211620e-02 8.833581744219e-04 8.833581744219e-04 8.833581744219e-04 -6.640070744531e-03 -6.640070744531e-03 -6.640070744531e-03 -2.656643591793e-02 -2.656643591793e-02 -2.656643591793e-02 7.719509894618e-04 7.719509894618e-04 7.719509894618e-04 -3.682552640436e-02 -3.682552640436e-02 -3.682552640436e-02 -1.266482606606e-01 -1.266482606606e-01 -1.266482606606e-01 1.287163518704e-02 1.287163518704e-02 1.287163518704e-02 -1.898534388366e-03 -1.898534388366e-03 -1.898534388366e-03 -1.599106169500e-02 -1.599106169500e-02 -1.599106169500e-02 2.825106030651e-02 2.825106030651e-02 2.825106030651e-02 -1.062379975531e-02 -1.062379975531e-02 -1.062379975531e-02 -2.296393217780e-02 -2.296393217780e-02 -2.296393217780e-02 5.794746328754e-03 5.794746328754e-03 5.794746328754e-03 -1.400841332157e-03 -1.400841332157e-03 -1.400841332157e-03 -6.051967962691e-03 -6.051967962691e-03 -6.051967962691e-03 7.405844549659e-03 7.405844549659e-03 7.405844549659e-03 -1.440206160463e-03 -1.440206160463e-03 -1.440206160463e-03 -2.763871043959e-03 -2.763871043959e-03 -2.763871043959e-03 3.981001627788e-04 3.981001627788e-04 3.981001627788e-04 -3.887802495710e-03 -3.887802495710e-03 -3.887802495710e-03 -1.556653640081e-02 -1.556653640081e-02 -1.556653640081e-02 3.502252666602e-04 3.502252666602e-04 3.502252666602e-04 -2.434302116424e-02 -2.434302116424e-02 -2.434302116424e-02 -8.316257349023e-02 -8.316257349023e-02 -8.316257349023e-02
-8.026094931990e-01 2.848957375435e+00 6.500524244069e+00 -8.026094931990e-01 2.848957375435e+00 6.500524244069e+00 -8.026094931990e-01 2.848957375435e+00 6.500524244069e+00 -4.380724149203e+00 -2.518214608572e+00 -6.557050679403e-01 -4.380724149203e+00 -2.518214608572e+00 -6.557050679403e-01 -4.380724149203e+00 -2.518214608572e+00 -6.557050679403e-01 -7.964062577757e-01 2.843426306355e+00 6.483258870486e+00 -7.964062577757e-01 2.843426306355e+00 6.483258870486e+00 -7.964062577757e-01 2.843426306355e+00 6.483258870486e+00 -4.364789461207e+00 -2.509148498792e+00 -6.535075363765e-01 -4.364789461207e+00 -2.509148498792e+00 -6.535075363765e-01 -4.364789461207e+00 -2.509148498792e+00 -6.535075363765e-01 -6.298411496619e-01 2.379420773626e+00 5.388682696914e+00 -6.298411496619e-01 2.379420773626e+00 5.388682696914e+00 -6.298411496619e-01 2.379420773626e+00 5.388682696914e+00 -3.808018426303e+00 -2.387845141336e+00 -9.676718563685e-01 -3.808018426303e+00 -2.387845141336e+00 -9.676718563685e-01 -3.808018426303e+00 -2.387845141336e+00 -9.676718563685e-01 -6.263176812337e-01 2.373648933257e+00 5.373615547747e+00 -6.263176812337e-01 2.373648933257e+00 5.373615547747e+00 -6.263176812337e-01 2.373648933257e+00 5.373615547747e+00 -3.795794701973e+00 -2.380566597852e+00 -9.653384937316e-01 -3.795794701973e+00 -2.380566597852e+00 -9.653384937316e-01 -3.795794701973e+00 -2.380566597852e+00 -9.653384937316e-01 -3.607097451466e-02 1.060109457036e-01 2.480928659219e-01 -3.607097451466e-02 1.060109457036e-01 2.480928659219e-01 -3.607097451466e-02 1.060109457036e-01 2.480928659219e-01 -1.342495811215e-01 -4.125696420665e-02 5.173565270822e-02 -1.342495811215e-01 -4.125696420665e-02 5.173565270822e-02 -1.342495811215e-01 -4.125696420665e-02 5.173565270822e-02 -1.695485583551e-02 4.452891562433e-02 1.060126870842e-01 -1.695485583551e-02 4.452891562433e-02 1.060126870842e-01 -1.695485583551e-02 4.452891562433e-02 1.060126870842e-01 -3.070915205779e-02 2.389747129090e-02 7.850409463960e-02 -3.070915205779e-02 2.389747129090e-02 7.850409463960e-02 -3.070915205779e-02 2.389747129090e-02 7.850409463960e-02 -3.831216551331e-02 1.123566557616e-01 2.630254770364e-01 -3.831216551331e-02 1.123566557616e-01 2.630254770364e-01 -3.831216551331e-02 1.123566557616e-01 2.630254770364e-01 -1.419384880398e-01 -4.308282802811e-02 5.577283198354e-02 -1.419384880398e-01 -4.308282802811e-02 5.577283198354e-02 -1.419384880398e-01 -4.308282802811e-02 5.577283198354e-02 -1.577451259260e-02 5.961401626057e-02 1.350025451137e-01 -1.577451259260e-02 5.961401626057e-02 1.350025451137e-01 -1.577451259260e-02 5.961401626057e-02 1.350025451137e-01 -6.075892907355e-02 -7.862608460853e-03 4.503371215184e-02 -6.075892907355e-02 -7.862608460853e-03 4.503371215184e-02 -6.075892907355e-02 -7.862608460853e-03 4.503371215184e-02 -7.758445274768e-03 2.893032575001e-02 6.561909677480e-02 -7.758445274768e-03 2.893032575001e-02 6.561909677480e-02 -7.758445274768e-03 2.893032575001e-02 6.561909677480e-02 -1.597719763803e-02 1.660219720512e-02 4.918159204828e-02 -1.597719763803e-02 1.660219720512e-02 4.918159204828e-02 -1.597719763803e-02 1.660219720512e-02 4.918159204828e-02 -2.377321509599e-02 8.666683020318e-02 1.971068755023e-01 -2.377321509599e-02 8.666683020318e-02 1.971068755023e-01 -2.377321509599e-02 8.666683020318e-02 1.971068755023e-01 -9.256259610195e-02 -1.651724130577e-02 5.952811349042e-02 -9.256259610195e-02 -1.651724130577e-02 5.952811349042e-02 -9.256259610195e-02 -1.651724130577e-02 5.952811349042e-02
-1.413101991454e-01 2.493422167098e-01 6.399946325649e-01 -1.413101991454e-01 2.493422167098e-01 6.399946325649e-01 -1.413101991454e-01 2.493422167098e-01 6.399946325649e-01 -5.104898151712e-01 -3.044272073290e-01 -9.836459948672e-02 -5.104898151712e-01 -3.044272073290e-01 -9.836459948672e-02 -5.104898151712e-01 -3.044272073290e-01 -9.836459948672e-02 -1.390554571944e-01 2.494235500985e-01 6.379025573913e-01 -1.390554571944e-01 2.494235500985e-01 6.379025573913e-01 -1.390554571944e-01 2.494235500985e-01 6.379025573913e-01 -5.071005525075e-01 -3.026440928713e-01 -9.818763323498e-02 -5.071005525075e-01 -3.026440928713e-01 -9.818763323498e-02 -5.071005525075e-01 -3.026440928713e-01 -9.818763323498e-02 -9.489974199702e-02 2.225559193486e-01 5.400115806943e-01 -9.489974199702e-02 2.225559193486e-01 5.400115806943e-01 -9.489974199702e-02 2.225559193486e-01 5.400115806943e-01 -4.214682745981e-01 -2.672968795529e-01 -1.131254845078e-01 -4.214682745981e-01 -2.672968795529e-01 -1.131254845078e-01 -4.214682745981e-01 -2.672968795529e-01 -1.131254845078e-01 -9.399918814764e-02 2.218706962326e-01 5.377405806128e-01 -9.399918814764e-02 2.218706962326e-01 5.377405806128e-01 -9.399918814764e-02 2.218706962326e-01 5.377405806128e-01 -4.194217023587e-01 -2.662630750839e-01 -1.131044478092e-01 -4.194217023587e-01 -2.662630750839e-01 -1.131044478092e-01 -4.194217023587e-01 -2.662630750839e-01 -1.131044478092e-01 -3.161867164194e-02 8.073295917934e-02 1.930845900006e-01 -3.161867164194e-02 8.073295917934e-02 1.930845900006e-01 -3.161867164194e-02 8.073295917934e-02 1.930845900006e-01 -1.130806530601e-01 -4.146001294796e-02 3.016062716421e-02 -1.130806530601e-01 -4.146001294796e-02 3.016062716421e-02 -1.130806530601e-01 -4.146001294796e-02 3.016062716421e-02 -1.460259481018e-02 3.089262234653e-02 7.638783950324e-02 -1.460259481018e-02 3.089262234653e-02 7.638783950324e-02 -1.460259481018e-02 3.089262234653e-02 7.638783950324e-02 -2.537126653884e-02 1.473961475353e-02 5.485049604591e-02 -2.537126653884e-02 1.473961475353e-02 5.485049604591e-02 -2.537126653884e-02 1.473961475353e-02 5.485049604591e-02 -1.205039438525e-02 1.109833974118e-02 3.424707386762e-02 -1.205039438525e-02 1.109833974118e-02 3.424707386762e-02 -1.205039438525e-02 1.109833974118e-02 3.424707386762e-02 -2.761148118801e-02 -1.224329046295e-02 3.124900262104e-03 -2.761148118801e-02 -1.224329046295e-02 3.124900262104e-03 -2.761148118801e-02 -1.224329046295e-02 3.124900262104e-03 -1.322310879091e-02 4.383911617623e-02 1.009013411434e-01 -1.322310879091e-02 4.383911617623e-02 1.009013411434e-01 -1.322310879091e-02 4.383911617623e-02 1.009013411434e-01 -4.988043517771e-02 -1.114687340397e-02 2.758668836977e-02 -4.988043517771e-02 -1.114687340397e-02 2.758668836977e-02 -4.988043517771e-02 -1.114687340397e-02 2.758668836977e-02 -6.378174074835e-03 1.951248716938e-02 4.540314841359e-02 -6.378174074835e-03 1.951248716938e-02 4.540314841359e-02 -6.378174074835e-03 1.951248716938e-02 4.540314841359e-02 -1.270607092983e-02 1.002064188689e-02 3.274735470360e-02 -1.270607092983e-02 1.002064188689e-02 3.274735470360e-02 -1.270607092983e-02 1.002064188689e-02 3.274735470360e-02 -6.703424801805e-03 8.310107672257e-03 2.332364014632e-02 -6.703424801805e-03 8.310107672257e-03 2.332364014632e-02 -6.703424801805e-03 8.310107672257e-03 2.332364014632e-02 -1.661141353126e-02 -6.551875421929e-03 3.507662687404e-03 -1.661141353126e-02 -6.551875421929e-03 3.507662687404e-03 -1.661141353126e-02 -6.551875421929e-03 3.507662687404e-03
-3.970105733284e-02 2.081918249867e-02 8.133942233017e-02 3.417531606003e-01 -1.393249913969e+00 -3.128252988539e+00 7.232073785333e-01 -2.807319010437e+00 -6.337845399408e+00 -8.361948840058e-02 -4.505846410294e-02 -6.497439805304e-03 2.064932842001e+00 1.191519608132e+00 3.181063742622e-01 4.213485172402e+00 2.428097680366e+00 6.427101883297e-01 -3.858526858394e-02 2.141485387489e-02 8.141497633372e-02 3.403252260120e-01 -1.389590872365e+00 -3.119506970743e+00 7.192357206079e-01 -2.800596598605e+00 -6.320428917819e+00 -8.247674771222e-02 -4.442236481752e-02 -6.367981922828e-03 2.058679609035e+00 1.187940702170e+00 3.172017953040e-01 4.199835965783e+00 2.420303769157e+00 6.407715725308e-01 -2.077193668239e-02 2.593781282699e-02 7.264756233637e-02 2.837626698074e-01 -1.150803667573e+00 -2.585370004953e+00 5.882972762971e-01 -2.327545147972e+00 -5.243387572241e+00 -6.042815671563e-02 -3.354651722287e-02 -6.664877730112e-03 1.813366978078e+00 1.143602794834e+00 4.738386115891e-01 3.687162112872e+00 2.320752106890e+00 9.543421009083e-01 -2.048412942717e-02 2.590169233981e-02 7.228751410679e-02 2.824326464761e-01 -1.147971928119e+00 -2.578376502714e+00 5.853494223793e-01 -2.321845548577e+00 -5.229040519534e+00 -5.998225205317e-02 -3.334549159919e-02 -6.708731145208e-03 1.807923972907e+00 1.140265061527e+00 4.726061501480e-01 3.675830197867e+00 2.313875614654e+00 9.519210314412e-01 -2.845865184066e-02 6.305649711785e-02 1.545716460764e-01 -2.465249050366e-02 4.157927282496e-02 1.078110361536e-01 -2.084632916666e-02 2.010204853207e-02 6.105042623079e-02 -9.675197491464e-02 -3.938348749312e-02 1.798499992839e-02 -7.800317181121e-02 -3.844674913636e-02 1.109673538480e-03 -5.925436870777e-02 -3.751001077960e-02 -1.576565285143e-02 -1.290095780281e-02 2.219157011198e-02 5.728409802677e-02 -1.087400878646e-02 1.102289735581e-02 3.291980349807e-02 -8.847059770115e-03 -1.457754003685e-04 8.555508969378e-03 -2.147571761362e-02 9.329430395766e-03 4.013457840515e-02 -1.685900039154e-02 2.045409948197e-03 2.094982028793e-02 -1.224228316945e-02 -5.238610499372e-03 1.765062170707e-03 -5.437972162833e-03 -4.898293811076e-05 5.340006286612e-03 1.099912451240e-02 -5.625180228795e-02 -1.235027290883e-01 2.743622118764e-02 -1.124546216378e-01 -2.523454644632e-01 -7.966534514487e-03 -3.841826465591e-03 2.828815833053e-04 5.901944224815e-02 1.577867431567e-02 -2.746209361681e-02 1.260054190108e-01 3.539917509693e-02 -5.520706881693e-02 -1.158840459909e-02 3.320829392248e-02 7.800499244406e-02 -9.495350602340e-03 2.000543275344e-02 4.950621610922e-02 -7.402296605587e-03 6.802571584396e-03 2.100743977438e-02 -4.187679872289e-02 -1.222429726321e-02 1.742820419647e-02 -3.243573354756e-02 -1.440514166439e-02 3.625450218785e-03 -2.299466837223e-02 -1.658598606556e-02 -1.017730375890e-02 -5.453793917309e-03 1.364021447617e-02 3.273422286964e-02 -4.301468238579e-03 5.995158839241e-03 1.629178591706e-02 -3.149142559850e-03 -1.649896797683e-03 -1.506510355165e-04 -1.042576990818e-02 6.182250489864e-03 2.279027088790e-02 -7.650056043251e-03 9.722771322340e-04 9.594610307719e-03 -4.874342178325e-03 -4.237696225396e-03 -3.601050272467e-03 -2.870720671090e-03 3.605491599761e-04 3.591818991042e-03 7.580526541360e-03 -4.279259136162e-02 -9.316570926461e-02 1.803177375381e-02 -8.594573188322e-02 -1.899232375203e-01 -4.496708609048e-03 -2.078432746961e-03 3.398431151260e-04 3.953623513740e-02 5.140971532442e-03 -2.925429207252e-02 8.356917888385e-02 1.236037581184e-02 -5.884842726017e-02
-1.556255807993e-02 -3.211516304136e-03 9.139525471662e-03 1.730589035183e-01 -3.820421158250e-01 -9.371431351682e-01 3.616803651165e-01 -7.608727153458e-01 -1.883425795808e+00 -2.043146995725e-02 -1.051488412012e-02 -5.982982829792e-04 7.146560478637e-01 4.303536006932e-01 1.460511535226e-01 1.449743565685e+00 8.712220855065e-01 2.927006053282e-01 -1.487525903832e-02 -2.688154330499e-03 9.498950377326e-03 1.713950381957e-01 -3.808557109740e-01 -9.331064601437e-01 3.576653354298e-01 -7.590232676174e-01 -1.875711870665e+00 -1.985273371419e-02 -1.015436634429e-02 -4.559989743998e-04 7.110189944758e-01 4.285802234462e-01 1.461414524165e-01 1.441890722666e+00 8.673148132366e-01 2.927389038074e-01 -5.732128451629e-03 2.853051485994e-03 1.143823142362e-02 1.280192918665e-01 -3.267012503080e-01 -7.814217924824e-01 2.617707121846e-01 -6.562555521019e-01 -1.574281816388e+00 -1.114057928552e-02 -5.259624764849e-03 6.213297558271e-04 6.043509636833e-01 3.877962574172e-01 1.712415511512e-01 1.219842506652e+00 7.808521395993e-01 3.418617725466e-01 -5.615222679971e-03 2.891660336177e-03 1.139854335232e-02 1.269607255215e-01 -3.255768935084e-01 -7.781145125384e-01 2.595366737230e-01 -6.540454473530e-01 -1.567627568429e+00 -1.100797608930e-02 -5.197469777821e-03 6.130365336611e-04 6.016126133147e-01 3.864009381814e-01 1.711892630480e-01 1.214233202719e+00 7.779993461406e-01 3.417654895624e-01 -2.600122627025e-02 5.026461381557e-02 1.265304539014e-01 -1.757505821272e-02 4.562095769911e-03 2.669924975254e-02 -9.148890155186e-03 -4.114042227575e-02 -7.313195439631e-02 -8.373255553057e-02 -3.633238007492e-02 1.106779538074e-02 -3.971040923622e-02 -2.864093076535e-02 -1.757145229448e-02 4.311737058124e-03 -2.094948145578e-02 -4.621069996969e-02 -1.158333451937e-02 1.644260718635e-02 4.446854889207e-02 -7.054444083149e-03 -5.232415553921e-03 -3.410387024693e-03 -2.525553646934e-03 -2.690743829419e-02 -5.128932294145e-02 -1.850181087747e-02 6.064892649190e-03 3.063159617585e-02 -8.197627385417e-03 -6.947190507323e-03 -5.696753629229e-03 2.106556106638e-03 -1.995927366384e-02 -4.202510343431e-02 -3.014884219944e-03 -1.343755714713e-03 3.273727905182e-04 1.053838102802e-02 -2.000689889856e-02 -5.055217882513e-02 2.409164627598e-02 -3.867004208240e-02 -1.014317304408e-01 -3.261414561052e-03 -1.713551226375e-03 -1.656878916985e-04 3.326368537938e-02 1.408105762849e-02 -5.101570122403e-03 6.978878531981e-02 2.987566648335e-02 -1.003745235311e-02 -1.039988321213e-02 2.579626566763e-02 6.199241454740e-02 -6.165044843972e-03 -1.268010095267e-03 3.629024653438e-03 -1.930206475809e-03 -2.833228585816e-02 -5.473436524052e-02 -3.569755100453e-02 -1.215023602097e-02 1.139707896260e-02 -1.442322474478e-02 -1.365527994647e-02 -1.288733514817e-02 6.851101514982e-03 -1.516032387198e-02 -3.717174925894e-02 -4.779705654351e-03 9.856655455563e-03 2.449301656548e-02 -2.382003023624e-03 -4.627092115157e-03 -6.872181206690e-03 1.569960710188e-05 -1.911083968588e-02 -3.823737897886e-02 -8.749009567819e-03 3.902699585360e-03 1.655440873854e-02 -2.813417524808e-03 -5.274213866934e-03 -7.735010209059e-03 3.122174518202e-03 -1.445112731923e-02 -3.202442915666e-02 -1.525872599032e-03 -5.696397764013e-04 3.865930462293e-04 6.240455705128e-03 -1.388926094939e-02 -3.401897760391e-02 1.400678400929e-02 -2.720888212238e-02 -6.842454825404e-02 -1.737519389599e-03 -8.871099622516e-04 -3.670053490444e-05 2.057332182290e-02 7.610038227265e-03 -5.353245368367e-03 4.288416303539e-02 1.610718641678e-02 -1.066979020183e-02
[...]
2.581912727932e-03 -3.499935753295e-04 8.967219008782e-06 -2.135674867685e-03 1.231140017804e-02 9.745103696836e-02 -5.599774056534e-03 2.986147648087e-02 2.588409039746e-01 1.173779106103e-03 4.223062849903e-04 3.968954024094e-04 7.313943250116e-01 -2.456670617888e-02 -3.483645703357e-01 1.991443464464e+00 -7.465622738302e-02 -9.580271082673e-01 2.330314637798e-03 -3.184642939550e-04 1.010000381797e-04 -2.059831079030e-03 1.241645297988e-02 9.777517471096e-02 -5.236475495997e-03 3.012386126988e-02 2.594695277041e-01 1.107433049022e-03 3.785284188678e-04 2.829550954820e-04 7.299378470502e-01 -2.421656369389e-02 -3.474817145364e-01 1.987421671423e+00 -7.366525214357e-02 -9.553751370270e-01 2.627903242778e-04 -4.463249271841e-05 2.188234265398e-04 -2.504270114992e-04 5.765214710639e-03 6.430832045928e-02 -2.413494901343e-04 1.249367093527e-02 1.704991966252e-01 4.389768286019e-04 -2.797814297835e-06 -2.081571537860e-04 6.880162145090e-01 -1.575236342486e-02 -3.286333071568e-01 1.871507297118e+00 -4.898965922826e-02 -8.954662896180e-01 2.454481862046e-04 -4.271745094016e-05 2.133121508194e-04 -2.315595861160e-04 5.844358783794e-03 6.442358143819e-02 -1.965427727845e-04 1.271851153200e-02 1.707779592162e-01 4.314965457409e-04 -6.160552131704e-06 -2.107554626662e-04 6.866403515333e-01 -1.547950354807e-02 -3.278822682705e-01 1.867701876629e+00 -4.823948488174e-02 -8.933834333839e-01 1.540357149581e-03 -1.201672254358e-03 -6.393935576171e-04 1.411470289038e-03 -3.855702400098e-03 -1.435287372813e-02 1.278984641685e-03 -6.043996138177e-03 -2.610225878446e-02 2.055842322784e-02 -5.808808695276e-03 -1.933963828460e-02 -2.952940298878e-03 -3.269168145578e-03 -9.532126958068e-03 -2.533461768930e-02 -5.010010901359e-04 7.276237702314e-04 4.041771133956e-04 -1.555241329057e-03 -2.674954357020e-03 3.477318937706e-04 -3.007332353353e-03 -1.104157726016e-02 2.910874981205e-04 -4.193660588892e-03 -1.831173231000e-02 1.448801101228e-03 -7.715868905493e-04 -3.574316827055e-04 3.273213643059e-04 -1.715917311629e-03 -8.853430097913e-03 -7.519705288946e-04 -2.474265344328e-03 -1.635709628993e-02 6.371164459510e-04 -7.019168484679e-05 -2.552929625310e-05 -2.273790172667e-04 1.694901525840e-03 8.071249898995e-03 -9.939661405448e-04 4.328329650155e-03 2.115048224602e-02 2.493628324535e-04 9.933802063618e-05 5.016687409012e-05 1.220441206200e-02 -1.136548769506e-03 -3.475808912550e-03 3.447825993906e-02 -3.912143430243e-03 -1.246960598587e-02 5.147055842934e-04 -1.383521077630e-04 9.048857019315e-04 4.655763766087e-04 -2.431124843241e-03 -9.668361158333e-03 4.127456792870e-04 -4.393596061619e-03 -1.887387817906e-02 7.805225466611e-03 -2.509374872651e-03 -8.082492909629e-03 -1.383400393343e-03 -1.884964283473e-03 -6.702841142598e-03 -1.010357644916e-02 -1.116796548159e-03 -4.883710408446e-03 1.396379495574e-04 -3.464587913206e-04 -4.782680885816e-05 1.175266369065e-04 -1.709181757214e-03 -6.628843042559e-03 9.487320504121e-05 -2.895447011202e-03 -1.250404192729e-02 5.568584847903e-04 -3.034399531998e-04 3.945155240719e-04 1.073760022304e-04 -1.065035461904e-03 -5.396344229721e-03 -3.218166311940e-04 -1.703689477270e-03 -1.055003837923e-02 2.751645347960e-04 -2.727690224514e-05 7.510830633206e-06 -1.412111019964e-04 1.786877949782e-03 8.047612895661e-03 -5.081664689479e-04 4.636765040690e-03 2.113150555920e-02 1.205771675248e-04 3.713120145456e-05 -2.870259618367e-05 7.318224023379e-03 -4.240154037487e-04 -6.834479713097e-04 2.063491616645e-02 -1.693157019339e-03 -3.867038223175e-03
2.013418557152e-03 -3.082796663592e-04 -2.869042558796e-04 -6.587028638948e-04 -1.369214851972e-02 -7.912420730228e-03 -3.939433695297e-04 -3.699417205816e-02 -1.867118977281e-02 6.240284856660e-04 3.854260795933e-04 7.107824648974e-04 3.437138531385e-01 -5.626054716827e-02 -2.103263333823e-01 9.261044492766e-01 -1.518067688025e-01 -5.690687667054e-01 1.801748355812e-03 -2.820156752906e-04 -1.890050559458e-04 -5.756360871897e-04 -1.361268947790e-02 -7.719663437523e-03 -1.320990173134e-04 -3.679026786931e-02 -1.839198646009e-02 5.717159173663e-04 3.497231485214e-04 6.062767731110e-04 3.427706609929e-01 -5.599687020258e-02 -2.096300645999e-01 9.235337466819e-01 -1.511000650492e-01 -5.670630213318e-01 1.799366540727e-04 -9.468496994993e-06 1.194323186388e-04 4.529775168719e-04 -1.124573761346e-02 -3.073913061713e-03 1.666496199248e-03 -3.084757080782e-02 -7.636229892279e-03 1.213742250768e-04 2.883236769976e-05 -2.830586141978e-05 3.188565282157e-01 -4.535767179082e-02 -1.760395855069e-01 8.579970007689e-01 -1.222898248342e-01 -4.733360403443e-01 1.669287036860e-04 -7.468702043486e-06 1.178817700084e-04 4.596139256817e-04 -1.115293641960e-02 -3.027458217638e-03 1.669495781123e-03 -3.060057160934e-02 -7.545934438987e-03 1.171916358510e-04 2.611381457506e-05 -3.247689242722e-05 3.180005284055e-01 -4.518161136645e-02 -1.756361102145e-01 8.556712230848e-01 -1.218175870383e-01 -4.722250707052e-01 1.520258808489e-03 -1.412749453360e-03 -1.893050300381e-03 1.314925123572e-03 -2.187725652492e-03 -8.788359148417e-03 1.108217334015e-03 -1.411319739229e-03 -9.001602110874e-03 1.747551286301e-02 -5.313199014467e-03 -1.759920967540e-02 -1.017084258005e-02 3.620300647438e-04 1.392667162020e-03 -3.341224659573e-02 6.728402351059e-03 2.173991079911e-02 3.955973493478e-04 -1.646738299072e-03 -3.394961396554e-03 3.104983274041e-04 -1.774156431182e-03 -7.331445835706e-03 2.276118884318e-04 -9.598055703436e-04 -7.246795618965e-03 1.293038043607e-03 -8.348332598177e-04 -1.204040799852e-03 -1.500474881185e-04 -9.111734134787e-04 -6.721217151077e-03 -1.430776715964e-03 -3.526565059299e-04 -8.696650935291e-03 5.321357390461e-04 -6.557501282996e-05 -5.289031059585e-05 -2.500708575705e-04 -6.114456840238e-04 -5.442352922127e-04 -7.341632784595e-04 -1.633954994372e-03 -1.327753457847e-03 1.669416129315e-04 9.788596615970e-05 1.493344855967e-04 9.672017996239e-03 -2.994655628174e-03 -8.761299176803e-03 2.655863569756e-02 -8.310982008414e-03 -2.504957228620e-02 5.073752510193e-04 -3.514192980776e-04 -1.244409381707e-04 4.291949602490e-04 -1.541027395884e-03 -6.514888344371e-03 3.480343524474e-04 -1.621237682548e-03 -8.230569397755e-03 6.607620397195e-03 -2.340038642903e-03 -7.613409840986e-03 -4.055333385779e-03 -1.881363034330e-04 -1.427834609991e-03 -1.292568021491e-02 2.449341836091e-03 6.383217305684e-03 1.363714230496e-04 -4.665622224567e-04 -6.815457149445e-04 1.034141807740e-04 -1.144965524316e-03 -4.912949910719e-03 7.094173926157e-05 -1.181145533391e-03 -6.484010738500e-03 4.949489734006e-04 -3.637589752757e-04 -1.891395402289e-04 -7.040702322408e-05 -5.950154250401e-04 -4.107892203962e-03 -5.631272186165e-04 -3.939823243447e-04 -5.702578571013e-03 2.257628550637e-04 -2.528969193136e-05 -6.519604412674e-07 -1.278853094722e-04 -1.663285296386e-04 4.192730589660e-04 -3.275344046320e-04 -4.639444356199e-04 1.062813068971e-03 7.655084293909e-05 4.078076568857e-05 4.074337615991e-05 5.614876141229e-03 -1.876521463537e-03 -5.468544495158e-03 1.541687364262e-02 -5.215768669255e-03 -1.563351504563e-02
1.613332360588e-03 -2.873346696271e-04 -4.740667568279e-04 8.935898986130e-05 -1.610194096254e-02 -8.990865565082e-02 1.761761776621e-03 -4.631761174624e-02 -2.793479696435e-01 4.295487821109e-04 3.140171516157e-04 7.233355964944e-04 -5.441563148089e-01 5.174803025956e-03 2.469432254783e-01 -1.797836795236e+00 2.982975219654e-02 8.272998434417e-01 1.432190680971e-03 -2.666552659150e-04 -3.771729615445e-04 1.381854348017e-04 -1.622852628870e-02 -9.008141186374e-02 1.858463708532e-03 -4.669017012575e-02 -2.800487542597e-01 3.860935546521e-04 2.848205936422e-04 6.303762689025e-04 -5.431607178694e-01 4.986289461265e-03 2.464867962907e-01 -1.794457330626e+00 2.913931726536e-02 8.256303259136e-01 1.284803167451e-04 -8.773515447257e-06 6.266233985170e-05 2.371265199626e-04 -9.446715176362e-03 -5.651780308809e-02 7.912086359435e-04 -2.620856088618e-02 -1.781834656563e-01 5.306202450537e-05 2.596334128829e-05 1.766595356037e-05 -5.136106967597e-01 1.526420371464e-03 2.432968113019e-01 -1.695333518149e+00 1.496432164949e-02 8.049876524645e-01 1.184552990913e-04 -6.706526777361e-06 6.347939364955e-05 2.361085178142e-04 -9.477777023718e-03 -5.659753644378e-02 7.738155935649e-04 -2.633980174242e-02 -1.784596716487e-01 5.027405500326e-05 2.383271838452e-05 1.347366680605e-05 -5.126660685778e-01 1.339782327453e-03 2.427733734595e-01 -1.692137502657e+00 1.433156673185e-02 8.032273691003e-01 1.500717567116e-03 -1.495064651848e-03 -2.563869000251e-03 1.216963841065e-03 6.157274543205e-04 2.093043554330e-03 9.448919530118e-04 5.427544100544e-03 1.877233364423e-02 1.493819747150e-02 -4.799677981358e-03 -1.588254321676e-02 -1.210903110253e-02 4.126923997392e-03 1.193875872865e-02 -2.937611762055e-02 1.385273057470e-02 4.078963441841e-02 3.875065056422e-04 -1.656303189948e-03 -3.739486965549e-03 2.748673773369e-04 3.163879997524e-04 3.993513926409e-04 1.709621325191e-04 4.018315740359e-03 1.226786239993e-02 1.158572753805e-03 -8.486124888962e-04 -1.730595989860e-03 -4.492649956352e-04 3.050005550668e-04 -1.661923495208e-03 -1.688529377834e-03 2.543952428297e-03 4.982630928888e-03 4.516907805609e-04 -6.514564607207e-05 -8.568381577614e-05 -1.607060345621e-04 -1.998302513388e-03 -8.355294307852e-03 -2.942290162789e-04 -5.849209246537e-03 -2.520348368855e-02 1.261934122258e-04 8.675904718197e-05 1.754022858458e-04 -7.454495430156e-03 -2.826178723724e-04 -5.610709607766e-04 -2.617712658238e-02 1.293756018096e-04 9.916190989661e-04 5.002290190593e-04 -4.683181488327e-04 -7.339801156165e-04 3.965731286217e-04 2.032482791114e-04 5.207638670671e-04 2.986719792389e-04 2.852061902295e-03 1.032274881997e-02 5.627439297805e-03 -2.145055216470e-03 -7.050346391648e-03 -4.645592230170e-03 1.761760133970e-03 4.843916129538e-03 -1.100412813221e-02 6.393692900739e-03 1.934596877673e-02 1.333032041470e-04 -5.269331500716e-04 -1.053567673423e-03 9.101026825023e-05 4.828521654929e-05 -3.301590099392e-04 5.268462037252e-05 1.852048394374e-03 5.690488167348e-03 4.419559483669e-04 -3.888440104824e-04 -5.596480094300e-04 -1.775729598886e-04 1.821691057662e-04 -8.250155124522e-04 -6.416233772323e-04 1.517238900194e-03 3.294530222705e-03 1.885357508282e-04 -2.615254096837e-05 -1.596390811097e-05 -6.652066379956e-05 -1.821393962038e-03 -7.575092622492e-03 -7.860540991968e-05 -5.523860930008e-03 -2.344906276194e-02 5.559278903795e-05 3.700028198126e-05 6.208323301291e-05 -4.545868445029e-03 -4.408143830792e-04 -1.768584097450e-03 -1.587019169310e-02 -7.395897021552e-04 -3.746960234845e-03
1.321479479045e-03 -2.579398875174e-04 -5.684912076088e-04 -4.071019427574e-06 1.382480163155e-02 6.606002812651e-03 7.333039029946e-04 4.591088175216e-02 2.381310124032e-02 3.278070538278e-04 2.526595451215e-04 6.599524707177e-04 -3.775194277437e-01 5.968133509687e-02 2.256120739555e-01 -1.225183269839e+00 1.954128044508e-01 7.362322136216e-01 1.164258205388e-03 -2.427813014078e-04 -4.768587894046e-04 1.177910650134e-05 1.359300957050e-02 6.221449186456e-03 7.188586400204e-04 4.527831207344e-02 2.265423392101e-02 2.906285302701e-04 2.286011802594e-04 5.780005893851e-04 -3.765324340738e-01 5.944949700926e-02 2.251065421246e-01 -1.221940031198e+00 1.946130908601e-01 7.344055610348e-01 9.474780435374e-05 -1.209675043922e-05 2.742376087108e-05 -2.658932219162e-04 1.054156278019e-02 3.539060529278e-03 -9.823482384123e-04 3.564803531561e-02 1.147218566497e-02 3.075767894191e-05 2.043123908728e-05 2.862573696467e-05 -3.516570663526e-01 4.909180707584e-02 1.956279995829e-01 -1.140216148312e+00 1.599182528739e-01 6.331138391148e-01 8.684624989917e-05 -1.011222903761e-05 2.957712042346e-05 -2.683526544736e-04 1.044535786645e-02 3.477960900587e-03 -9.965277693142e-04 3.533010209260e-02 1.127528645688e-02 2.873718459484e-05 1.876053127045e-05 2.485832099195e-05 -3.507519131400e-01 4.890352493962e-02 1.952389264302e-01 -1.137252416742e+00 1.593026417680e-01 6.318102064907e-01 1.481744741394e-03 -1.496059131432e-03 -2.855366916391e-03 1.112527184477e-03 3.138617295285e-03 1.242384364208e-02 7.705427351956e-04 1.062490600947e-02 4.121374179754e-02 1.283828692452e-02 -4.296777806439e-03 -1.425671905920e-02 -9.666563446776e-03 6.524644065911e-03 1.771302149340e-02 -1.624290148700e-02 1.690383648370e-02 4.627599192471e-02 3.798610993089e-04 -1.614369172136e-03 -3.837192432565e-03 2.405769327063e-04 2.289532520182e-03 8.238304223007e-03 1.187972119827e-04 8.087581085192e-03 2.951666417889e-02 1.041890598898e-03 -8.326423490096e-04 -2.042294555582e-03 -5.597026375831e-04 1.263077024627e-03 3.288463375216e-03 -1.521985824110e-03 4.390641751123e-03 1.628419815283e-02 3.886376696095e-04 -6.367515592583e-05 -1.127683652923e-04 -7.213635835879e-05 3.016527008486e-04 -9.844941379927e-04 5.593936776939e-06 1.304858992984e-03 -1.803000253710e-03 1.014012521150e-04 7.494194588455e-05 1.754250459265e-04 -9.708397612248e-03 2.629720070256e-03 7.157541048132e-03 -3.219949387303e-02 9.040324559605e-03 2.502497698186e-02 4.932920390930e-04 -5.224867161491e-04 -1.065182251146e-03 3.607209951714e-04 1.859860379848e-03 7.516544604993e-03 2.419019109869e-04 6.458758644916e-03 2.607123771322e-02 4.820360525827e-03 -1.942900898883e-03 -6.455669187557e-03 -3.560262918525e-03 3.098872385419e-03 9.107636606217e-03 -5.659950916510e-03 8.399827923229e-03 2.590149683087e-02 1.304169028882e-04 -5.480260626721e-04 -1.248793065736e-03 7.902605785920e-05 1.253121162567e-03 4.633161494236e-03 3.551657317209e-05 4.513902788865e-03 1.718082265483e-02 3.962876772130e-04 -3.921632080131e-04 -7.867522699945e-04 -2.124462312128e-04 8.121988209762e-04 2.397612706800e-03 -5.619330023344e-04 2.786951160770e-03 1.074963220690e-02 1.598032006087e-04 -2.667182430106e-05 -3.042168988969e-05 -2.179802258313e-05 -7.568271351974e-05 -1.448968073699e-03 5.298303767406e-05 -2.505940476944e-05 -3.867979873976e-03 4.329508105329e-05 3.208231670563e-05 6.644135705302e-05 -5.651422671066e-03 1.635635652431e-03 4.362366975940e-03 -1.872804500167e-02 5.635803920814e-03 1.537365351835e-02
ks_driver_exc(): Ex = -5.564464451859e+02  Ec = -3.345824515903e-01
Calculated Ex = -6.321511135549e+00
Calculated Ess = -3.077442165331e-02, Calculated Eos = -3.038080299370e-01, Calculated Ec = -3.345824515903e-01
 
 --------------------------------------------------------------
 
                    Orbital Energies (a.u.)
 --------------------------------------------------------------
 
 Alpha MOs
 -- Occupied --
-19.2195  -1.1462  -0.6461  -0.5078  -0.4306
 -- Virtual --
  0.0564   0.0819   0.1066   0.1078   0.1847   0.2037   0.2275   0.2345
  0.2450   0.2808   0.3088   0.3364   0.4088   0.4168   0.4488   0.5063
  0.5163   0.5185   0.5761   0.5918   0.6021   0.7119   0.8388   0.8783
  0.9040   1.0168   1.0589   1.1116   1.1801   1.2062   1.4043   1.4455
  1.5020   1.5222   1.5692   1.6485   1.6825   1.9663   2.0103   2.0875
  2.1249   2.3431   2.3526   2.5249   2.5261   2.5476   2.6443   2.6817
  2.7422   2.7689   2.7832   2.9833   3.2205   3.2869   3.3441   3.5132
  3.7932   3.9658   3.9710   3.9988   4.1687   4.2387   4.3426   4.3433
  4.4802   4.6740   4.8918   4.8921   5.3434   5.4321   5.5340   5.7750
  5.9914   6.0491   6.1484   6.5126   6.5857   6.8377   7.1160   7.2118
  7.3179   7.3379   7.4338   7.4592   7.5176   7.5276   7.7446   7.7662
  7.8474   7.9064   7.9540   7.9577   8.0923   8.1631   8.4215   8.6046
  8.6941   8.8499   8.8608   9.0976   9.2229   9.9417   9.9477  10.3240
 10.3747  10.7795  10.8388  11.0294  11.2110  11.2133  11.3730  11.5680
 11.8095  11.8866  11.9295  11.9493  12.3574  13.0002  13.6189  13.6719
 13.7639  14.1570  14.4902  16.8329  16.8374  48.4468 253.3811
 
 Beta MOs
 -- Occupied --
-19.2195  -1.1462  -0.6461  -0.5078  -0.4306
 -- Virtual --
  0.0564   0.0819   0.1066   0.1078   0.1847   0.2037   0.2275   0.2345
  0.2450   0.2808   0.3088   0.3364   0.4088   0.4168   0.4488   0.5063
  0.5163   0.5185   0.5761   0.5918   0.6021   0.7119   0.8388   0.8783
  0.9040   1.0168   1.0589   1.1116   1.1801   1.2062   1.4043   1.4455
  1.5020   1.5222   1.5692   1.6485   1.6825   1.9663   2.0103   2.0875
  2.1249   2.3431   2.3526   2.5249   2.5261   2.5476   2.6443   2.6817
  2.7422   2.7689   2.7832   2.9833   3.2205   3.2869   3.3441   3.5132
  3.7932   3.9658   3.9710   3.9988   4.1687   4.2387   4.3426   4.3433
  4.4802   4.6740   4.8918   4.8921   5.3434   5.4321   5.5340   5.7750
  5.9914   6.0491   6.1484   6.5126   6.5857   6.8377   7.1160   7.2118
  7.3179   7.3379   7.4338   7.4592   7.5176   7.5276   7.7446   7.7662
  7.8474   7.9064   7.9540   7.9577   8.0923   8.1631   8.4215   8.6046
  8.6941   8.8499   8.8608   9.0976   9.2229   9.9417   9.9477  10.3240
 10.3747  10.7795  10.8388  11.0294  11.2110  11.2133  11.3730  11.5680
 11.8095  11.8866  11.9295  11.9493  12.3574  13.0002  13.6189  13.6719
 13.7639  14.1570  14.4902  16.8329  16.8374  48.4468 253.3811
 --------------------------------------------------------------
 
          Ground-State Mulliken Net Atomic Charges

     Atom                 Charge (a.u.)    Spin (a.u.)
  --------------------------------------------------------
      1 O                    -0.406846       0.000000
      2 H                     0.203423       0.000000
      3 H                     0.203423      -0.000000
  --------------------------------------------------------
  Sum of atomic charges =    -0.000000
  Sum of spin   charges =    -0.000000

 -----------------------------------------------------------------
                    Cartesian Multipole Moments
 -----------------------------------------------------------------
    Charge (ESU x 10^10)
                -0.0000
    Dipole Moment (Debye)
         X       0.0000      Y      -0.0000      Z      -1.8844
       Tot       1.8844
    Quadrupole Moments (Debye-Ang)
        XX      -4.4737     XY       0.0000     YY      -7.7692
        XZ       0.0000     YZ      -0.0000     ZZ      -7.4574
    Octopole Moments (Debye-Ang^2)
       XXX       0.0000    XXY      -0.0000    XYY      -0.0000
       YYY       0.0000    XXZ      -2.5456    XYZ      -0.0000
       YYZ      -2.3667    XZZ       0.0000    YZZ      -0.0000
       ZZZ      -6.7749
    Hexadecapole Moments (Debye-Ang^3)
      XXXX      -6.5709   XXXY      -0.0000   XXYY      -2.6893
      XYYY       0.0000   YYYY      -7.6388   XXXZ       0.0000
      XXYZ      -0.0000   XYYZ      -0.0000   YYYZ      -0.0000
      XXZZ      -3.1533   XYZZ      -0.0000   YYZZ      -3.3585
      XZZZ       0.0000   YZZZ      -0.0000   ZZZZ     -12.1458
 -----------------------------------------------------------------
 Total job time:  18.83s(wall), 73.36s(cpu) 
 Wed Dec 18 04:53:07 2024

        *************************************************************
        *                                                           *
        *  Thank you very much for using Q-Chem.  Have a nice day.  *
        *                                                           *
        *************************************************************


