                  Welcome to Q-Chem
     A Quantum Leap Into The Future Of Chemistry


 Q-Chem 6.3 (devel), Q-Chem, Inc., Pleasanton, CA (2025)

 E. Epifanovsky,  A. T. B. Gilbert,  Xintian Feng,  Joonho Lee,  Yuezhi Mao,  
 N. Mardirossian,  P. Pokhilko,  A. White,  M. Wormit,  M. P. Coons,  
 A. L. Dempwolff,  Zhengting Gan,  D. Hait,  P. R. Horn,  L. D. Jacobson,  
 I. Kaliman,  J. Kussmann,  A. W. Lange,  Ka Un Lao,  D. S. Levine,  Jie Liu,  
 S. C. McKenzie,  A. F. Morrison,  K. D. Nanda,  F. Plasser,  D. R. Rehn,  
 M. L. Vidal,  Zhi-Qiang You,  Ying Zhu,  Huseyin Aksu,  B. Alam,  
 B. Albrecht,  A. Aldossary,  E. Alguire,  J. H. Andersen,  
 J. E. Arias-Martinez,  V. Athavale,  F. Ballesteros,  D. Barton,  K. Begam,  
 A. Behn,  N. Bellonzi,  Y. A. Bernard,  E. J. Berquist,  H. Burton,  
 S. Camps,  A. Carreras,  K. Carter-Fenk,  Mathew Chow,  Romit Chakraborty,  
 Chandrima Chakravarty,  Junhan Chen,  A. D. Chien,  K. D. Closser,  
 V. Cofer-Shabica,  L. Cunha,  S. Dasgupta,  Jia Deng,  Joseph Dickinson,  
 M. de Wergifosse,  M. Diedenhofen,  L. B. Dittmer,  Hainam Do,  Wenjie Dou,  
 S. Ehlert,  Po-Tung Fang,  S. Fatehi,  Qingguo Feng,  Jonathan Fetherolf,  
 T. Friedhoff,  Thomas Froitzheim,  Sarai Folkestad,  B. Ganoe,  J. Gayvert,  
 Qinghui Ge,  G. Gidofalvi,  M. Gimferrer,  G. Giudetti,  M. Goldey,  
 Montgomery Gray,  J. Gomes,  C. Gonzalez-Espinoza,  S. Gulania,  A. Gunina,  
 J. A. Gyamfi,  M. W. D. Hanson-Heine,  P. H. P. Harbach,  A. W. Hauser,  
 M. F. Herbst,  M. Hernandez Vera,  M. Hodecker,  Z. C. Holden,  S. Houck,  
 Xunkun Huang,  Kerwin Hui,  B. C. Huynh,  K. Ikeda,  M. Ivanov,  
 Nayanthara K. Jayadev,  Hyunjun Ji,  Zuxin Jin,  Hanjie Jiang,  
 Subrata Jana,  B. Kaduk,  S. Kaehler,  R. Kang,  Richard Kang,  
 K. Khistyaev,  Jaehoon Kim,  Yongbin Kim,  P. Klunzinger,  Z. Koczor-Benda,  
 Joong Hoon Koh,  D. Kosenkov,  Saikiran Kotaru,  L. Koulias,  T. Kowalczyk,  
 C. M. Krauter,  K. Kue,  A. Kunitsa,  T. Kus,  A. Landau,  C. W. Lander,  
 K. V. Lawler,  D. Lefrancois,  S. Lehtola,  Rain Li,  Shaozhi Li,  
 Tao E. Li,  Yi-Pei Li,  Jiashu Liang,  M. Liebenthal,  Hung-Hsuan Lin,  
 You-Sheng Lin,  Fenglai Liu,  Kuan-Yu Liu,  Xiao Liu,  M. Loipersberger,  
 A. Luenser,  C. Malbon,  Aniket Mandal,  Manisha,  A. Manjanath,  
 P. Manohar,  E. Mansoor,  S. F. Manzer,  Shan-Ping Mao,  A. V. Marenich,  
 T. Markovich,  S. Mason,  F. Matz,  S. A. Maurer,  Samuel May,  
 Alexandra McIsaac,  P. F. McLaughlin,  M. F. S. J. Menger,  J.-M. Mewes,  
 S. A. Mewes,  R. E. Moorby,  P. Morgante,  Mohammad Mostafanejad,  
 Madhubani Mukherjee,  J. W. Mullinax,  Quyen Nguyen,  Avik Kumar Ojha,  
 K. J. Oosterbaan,  Eno Paenurk,  Xiaoliang Pan,  G. Paran,  V. Parravicini,  
 R. L. Patterson,  Alexander C. Paul,  Suranjan K. Paul,  F. Pavosevic,  
 Zheng Pei,  P. Pokhilko,  S. Prager,  E. I. Proynov,  E. Ramos,  B. Rana,  
 A. E. Rask,  A. Rettig,  R. M. Richard,  F. Rob,  E. Rossomme,  S. Roy,  
 T. Scheele,  M. Scheurer,  M. Schneider,  P. E. Schneider,  Tim K. Schramm,  
 N. Sergueev,  S. M. Sharada,  Hengyuan Shen,  W. Skomorowski,  D. W. Small,  
 C. J. Stein,  Alistair J. Sterling,  Yingli Su,  Yu-Chuan Su,  
 E. J. Sundstrom,  J. Talbot,  J. A. Tan,  Zhen Tao,  Hung-Hsuan Teh,  
 J. Thirman,  C. Titeca,  N. Tkachenko,  Hung-Yi Tsai,  T. Tsuchimochi,  
 N. M. Tubman,  C. Utku,  S. P. Veccham,  O. Vydrov,  Z. Wang,  Rahel Weiss,  
 J. Wenzel,  Jonathan Wong,  J. Witte,  H. Wu,  Yanze Wu,  A. Yamada,  
 Chou-Hsun Yang,  Kun Yao,  S. Yeganeh,  S. R. Yost,  Qi Yu,  A. Zech,  
 F. Zeller,  Chongxiao Zhao,  T. Zhao,  Igor Ying Zhang,  Xing Zhang,  
 Yu Zhang,  D. Zuev,  A. Aspuru-Guzik,  A. T. Bell,  N. A. Besley,  
 K. B. Bravaya,  B. R. Brooks,  D. Casanova,  Jeng-Da Chai,  Hsing-Ta Chen,  
 S. Coriani,  C. J. Cramer,  A. E. DePrince, III,  R. A. DiStasio Jr.,  
 A. Dreuw,  B. D. Dunietz,  T. R. Furlani,  W. A. Goddard III,  S. Grimme,  
 S. Hammes-Schiffer,  T. Head-Gordon,  W. J. Hehre,  Chao-Ping Hsu,  
 T.-C. Jagau,  Yousung Jung,  A. Klamt,  Jing Kong,  D. S. Lambrecht,  
 Xiangyuan Li,  WanZhen Liang,  N. J. Mayhall,  C. W. McCurdy,  J. B. Neaton,  
 T. Neudecker,  C. Ochsenfeld,  J. A. Parkhill,  R. Peverati,  
 V. A. Rassolov,  Haisheng Ren,  Yihan Shao,  L. V. Slipchenko,  
 R. P. Steele,  J. E. Subotnik,  A. J. W. Thom,  A. Tkatchenko,  
 D. G. Truhlar,  T. Van Voorhis,  Fan Wang,  T. A. Wesolowski,  K. B. Whaley,  
 H. L. Woodcock III,  P. M. Zimmerman,  S. Faraji,  P. M. W. Gill,  
 M. Head-Gordon,  J. M. Herbert,  A. I. Krylov

 Contributors to earlier versions of Q-Chem not listed above: 
 R. D. Adamson,  B. Austin,  R. Baer,  J. Baker,  G. J. O. Beran,  
 K. Brandhorst,  S. T. Brown,  E. F. C. Byrd,  Arup K. Chakraborty,  
 G. K. L. Chan,  Chun-Min Chang,  Yunqing Chen,  C.-L. Cheng,  
 Siu Hung Chien,  D. M. Chipman,  D. L. Crittenden,  H. Dachsel,  
 R. J. Doerksen,  A. D. Dutoi,  R. G. Edgar,  J. Fosso-Tande,  
 L. Fusti-Molnar,  D. Ghosh,  A. Ghysels,  A. Golubeva-Zadorozhnaya,  
 J. Gonthier,  M. S. Gordon,  S. R. Gwaltney,  G. Hawkins,  J. E. Herr,  
 A. Heyden,  S. Hirata,  E. G. Hohenstein,  G. Kedziora,  F. J. Keil,  
 C. Kelley,  Jihan Kim,  R. A. King,  R. Z. Khaliullin,  P. P. Korambath,  
 W. Kurlancheek,  A. Laurent,  A. M. Lee,  M. S. Lee,  S. V. Levchenko,  
 Ching Yeh Lin,  D. Liotard,  E. Livshits,  R. C. Lochan,  I. Lotan,  
 L. A. Martinez-Martinez,  P. E. Maslen,  N. Nair,  D. P. O'Neill,  
 D. Neuhauser,  E. Neuscamman,  C. M. Oana,  R. Olivares-Amaya,  R. Olson,  
 T. M. Perrine,  B. Peters,  P. A. Pieniazek,  A. Prociuk,  Y. M. Rhee,  
 J. Ritchie,  M. A. Rohrdanz,  E. Rosta,  N. J. Russ,  H. F. Schaefer III,  
 M. W. Schmidt,  N. E. Schultz,  S. Sharma,  N. Shenvi,  C. D. Sherrill,  
 A. C. Simmonett,  A. Sodt,  T. Stein,  D. Stuck,  K. S. Thanthiriwatte,  
 V. Vanovschi,  L. Vogt,  Tao Wang,  A. Warshel,  M. A. Watson,  
 C. F. Williams,  Q. Wu,  X. Xu,  Jun Yang,  W. Zhang,  Yan Zhao

   Please cite Q-Chem as follows:
  "Software for the frontiers of quantum chemistry:
   An overview of developments in the Q-Chem 5 package"
   J. Chem. Phys. 155, 084801 (2021)
   https://doi.org/10.1063/5.0055522 (open access)

 Q-Chem 6.3.1 for Intel X86 EM64T Linux

 Parts of Q-Chem use Armadillo 12.8.2 (Cortisol Injector).
 http://arma.sourceforge.net/

 Q-Chem begins on [redacted timestamp]

 Host: [redacted host]
0

 Scratch files written to [redacted path]
 Executable: [redacted path]
 Number of threads = 128
 Processing $rem in [redacted path]:
 Processing $rem in [redacted path]:

 Checking the input file for inconsistencies... 	...done.

--------------------------------------------------------------
User input:
--------------------------------------------------------------
$molecule
0 1
C -0.144956 3.27465 -0.631433
C -1.3036 3.05772 -1.37824
C -2.48399 2.856 -0.662715
C -2.49717 2.82548 0.742857
C -1.32996 2.99323 1.4882
C -0.157622 3.242 0.773277
C -3.92845 2.61765 -1.11888
C -4.23882 1.17442 -0.715348
C -4.25313 1.14508 0.691795
C -3.95026 2.56969 1.16119
C -4.34602 0.00957863 -1.47349
C -4.45383 -1.18699 -0.765815
C -4.46973 -1.21599 0.640013
C -4.37687 -0.0498705 1.39878
C -4.67247 3.36573 0.0303717
C 1.26488 3.70065 -1.04697
C 1.24481 3.64631 1.23324
C 2.24449 2.58016 0.77859
C 2.25699 2.61391 -0.626393
C 3.129 1.77546 1.4977
C 4.058 1.04335 0.757234
C 4.0708 1.07757 -0.647357
C 3.15461 1.84485 -1.36783
C 1.54104 4.71035 0.12038
C 5.22804 0.180989 -1.09861
C 4.84791 -1.24632 -0.699519
C 4.83429 -1.28096 0.708636
C 5.20672 0.124642 1.1849
C 4.52448 -2.37025 -1.44444
C 4.18089 -3.5458 -0.755673
C 4.16684 -3.58001 0.63849
C 4.49643 -2.43992 1.39084
C 6.22992 0.490001 0.0608929
C -4.40151 -2.68962 1.04828
C -2.9982 -3.12914 0.61869
C -2.98152 -3.10006 -0.788422
C -4.37469 -2.64263 -1.23261
C -1.85173 -3.42884 1.33766
C -0.674652 -3.72059 0.626961
C -0.658035 -3.69181 -0.765609
C -1.81794 -3.37034 -1.49152
C -5.22652 -3.31832 -0.115468
H -1.29804 3.0913 -2.46506
H -1.34427 2.97793 2.57537
H -4.15945 2.89316 -2.14791
H -4.20057 2.80221 2.19629
H -4.29572 0.0301384 -2.55913
H -4.34927 -0.0743018 2.48511
H -4.44784 4.43628 0.0549276
H -5.7529 3.19226 0.0164583
H 1.36832 4.0675 -2.06892
H 1.3305 3.96383 2.27319
H 3.13292 1.75974 2.58482
H 3.17792 1.88214 -2.45416
H 0.835088 5.54666 0.134187
H 2.57566 5.06721 0.137959
H 5.56939 0.318553 -2.12449
H 5.52902 0.210975 2.22248
H 4.52615 -2.34567 -2.53072
H 3.92763 -4.44062 -1.31756
H 3.90275 -4.50118 1.15054
H 4.47685 -2.46884 2.47689
H 6.53271 1.54096 0.0897446
H 7.10292 -0.170004 0.052685
H -4.69164 -2.92552 2.07229
H -4.64037 -2.83628 -2.27202
H -1.85516 -3.43955 2.42477
H 0.235481 -3.96304 1.16865
H 0.264995 -3.91188 -1.29481
H -1.79526 -3.33603 -2.57793
H -6.26843 -2.98496 -0.120913
H -5.16504 -4.41055 -0.137193
C 0.239321 -0.447581 -1.41575
C 1.41734 -0.814101 -0.680882
C 1.40268 -0.84375 0.674305
C 0.208809 -0.510436 1.39941
C -0.985926 -0.208328 0.663194
C -0.971053 -0.17798 -0.692573
C 0.270837 -0.358367 -2.80773
C 1.46795 -0.590987 -3.53403
N 2.46487 -0.775335 -4.10746
C -0.888129 -0.00941652 -3.54867
N -1.85146 0.279961 -4.13587
C 0.210801 -0.484643 2.79431
C 1.39285 -0.750179 3.53381
N 2.37847 -0.961306 4.11742
C -0.964405 -0.172232 3.5259
N -1.94089 0.0877713 4.10507
H 2.31861 -1.07674 -1.2197
H 2.29227 -1.12989 1.2204
H -1.90127 0.00218481 1.20005
H -1.87449 0.0569473 -1.23938
$end


$rem
MEM_TOTAL 120000
SCF_GUESS READ
method COACH
BASIS DEF2-TZVPPD
XC_GRID 000099000590

SCF_CONVERGENCE 6
THRESH  12
max_scf_cycles 100
UNRESTRICTED True

SCF_ALGORITHM  GDM

MEM_STATIC 8000
GEN_SCFMAN TRUE
SYMMETRY FALSE
SYM_IGNORE TRUE
$end
--------------------------------------------------------------
 ATTENTION: Requested functional is not supported in DFT-D4.
 Make sure to provide the necessary damping parameters
 ----------------------------------------------------------------
 s6  =   0.00000
 s8  =   0.00000
 s9  =   1.00000
 a1  =   0.21500
 a2  =   5.80000
 alp =   16.00000
 Adding empirical dispersion correction 
 ----------------------------------------------------------------
 Doing -D4(BJ) with  parameters:
 -D4 energy including 3-body term = 0.0049518824 hartrees
 ----------------------------------------------------------------
             Standard Nuclear Orientation (Angstroms)
    I     Atom           X                Y                Z
 ----------------------------------------------------------------
    1      C      -0.1449560000     3.2746500000    -0.6314330000
    2      C      -1.3036000000     3.0577200000    -1.3782400000
    3      C      -2.4839900000     2.8560000000    -0.6627150000
    4      C      -2.4971700000     2.8254800000     0.7428570000
    5      C      -1.3299600000     2.9932300000     1.4882000000
    6      C      -0.1576220000     3.2420000000     0.7732770000
    7      C      -3.9284500000     2.6176500000    -1.1188800000
    8      C      -4.2388200000     1.1744200000    -0.7153480000
    9      C      -4.2531300000     1.1450800000     0.6917950000
   10      C      -3.9502600000     2.5696900000     1.1611900000
   11      C      -4.3460200000     0.0095786300    -1.4734900000
   12      C      -4.4538300000    -1.1869900000    -0.7658150000
   13      C      -4.4697300000    -1.2159900000     0.6400130000
   14      C      -4.3768700000    -0.0498705000     1.3987800000
   15      C      -4.6724700000     3.3657300000     0.0303717000
   16      C       1.2648800000     3.7006500000    -1.0469700000
   17      C       1.2448100000     3.6463100000     1.2332400000
   18      C       2.2444900000     2.5801600000     0.7785900000
   19      C       2.2569900000     2.6139100000    -0.6263930000
   20      C       3.1290000000     1.7754600000     1.4977000000
   21      C       4.0580000000     1.0433500000     0.7572340000
   22      C       4.0708000000     1.0775700000    -0.6473570000
   23      C       3.1546100000     1.8448500000    -1.3678300000
   24      C       1.5410400000     4.7103500000     0.1203800000
   25      C       5.2280400000     0.1809890000    -1.0986100000
   26      C       4.8479100000    -1.2463200000    -0.6995190000
   27      C       4.8342900000    -1.2809600000     0.7086360000
   28      C       5.2067200000     0.1246420000     1.1849000000
   29      C       4.5244800000    -2.3702500000    -1.4444400000
   30      C       4.1808900000    -3.5458000000    -0.7556730000
   31      C       4.1668400000    -3.5800100000     0.6384900000
   32      C       4.4964300000    -2.4399200000     1.3908400000
   33      C       6.2299200000     0.4900010000     0.0608929000
   34      C      -4.4015100000    -2.6896200000     1.0482800000
   35      C      -2.9982000000    -3.1291400000     0.6186900000
   36      C      -2.9815200000    -3.1000600000    -0.7884220000
   37      C      -4.3746900000    -2.6426300000    -1.2326100000
   38      C      -1.8517300000    -3.4288400000     1.3376600000
   39      C      -0.6746520000    -3.7205900000     0.6269610000
   40      C      -0.6580350000    -3.6918100000    -0.7656090000
   41      C      -1.8179400000    -3.3703400000    -1.4915200000
   42      C      -5.2265200000    -3.3183200000    -0.1154680000
   43      H      -1.2980400000     3.0913000000    -2.4650600000
   44      H      -1.3442700000     2.9779300000     2.5753700000
   45      H      -4.1594500000     2.8931600000    -2.1479100000
   46      H      -4.2005700000     2.8022100000     2.1962900000
   47      H      -4.2957200000     0.0301384000    -2.5591300000
   48      H      -4.3492700000    -0.0743018000     2.4851100000
   49      H      -4.4478400000     4.4362800000     0.0549276000
   50      H      -5.7529000000     3.1922600000     0.0164583000
   51      H       1.3683200000     4.0675000000    -2.0689200000
   52      H       1.3305000000     3.9638300000     2.2731900000
   53      H       3.1329200000     1.7597400000     2.5848200000
   54      H       3.1779200000     1.8821400000    -2.4541600000
   55      H       0.8350880000     5.5466600000     0.1341870000
   56      H       2.5756600000     5.0672100000     0.1379590000
   57      H       5.5693900000     0.3185530000    -2.1244900000
   58      H       5.5290200000     0.2109750000     2.2224800000
   59      H       4.5261500000    -2.3456700000    -2.5307200000
   60      H       3.9276300000    -4.4406200000    -1.3175600000
   61      H       3.9027500000    -4.5011800000     1.1505400000
   62      H       4.4768500000    -2.4688400000     2.4768900000
   63      H       6.5327100000     1.5409600000     0.0897446000
   64      H       7.1029200000    -0.1700040000     0.0526850000
   65      H      -4.6916400000    -2.9255200000     2.0722900000
   66      H      -4.6403700000    -2.8362800000    -2.2720200000
   67      H      -1.8551600000    -3.4395500000     2.4247700000
   68      H       0.2354810000    -3.9630400000     1.1686500000
   69      H       0.2649950000    -3.9118800000    -1.2948100000
   70      H      -1.7952600000    -3.3360300000    -2.5779300000
   71      H      -6.2684300000    -2.9849600000    -0.1209130000
   72      H      -5.1650400000    -4.4105500000    -0.1371930000
   73      C       0.2393210000    -0.4475810000    -1.4157500000
   74      C       1.4173400000    -0.8141010000    -0.6808820000
   75      C       1.4026800000    -0.8437500000     0.6743050000
   76      C       0.2088090000    -0.5104360000     1.3994100000
   77      C      -0.9859260000    -0.2083280000     0.6631940000
   78      C      -0.9710530000    -0.1779800000    -0.6925730000
   79      C       0.2708370000    -0.3583670000    -2.8077300000
   80      C       1.4679500000    -0.5909870000    -3.5340300000
   81      N       2.4648700000    -0.7753350000    -4.1074600000
   82      C      -0.8881290000    -0.0094165200    -3.5486700000
   83      N      -1.8514600000     0.2799610000    -4.1358700000
   84      C       0.2108010000    -0.4846430000     2.7943100000
   85      C       1.3928500000    -0.7501790000     3.5338100000
   86      N       2.3784700000    -0.9613060000     4.1174200000
   87      C      -0.9644050000    -0.1722320000     3.5259000000
   88      N      -1.9408900000     0.0877713000     4.1050700000
   89      H       2.3186100000    -1.0767400000    -1.2197000000
   90      H       2.2922700000    -1.1298900000     1.2204000000
   91      H      -1.9012700000     0.0021848100     1.2000500000
   92      H      -1.8744900000     0.0569473000    -1.2393800000
 ----------------------------------------------------------------
 Nuclear Repulsion Energy =        8253.99260529 hartrees
 There are      193 alpha and      193 beta electrons
 Requested basis set is def2-TZVPPD
 There are 992 shells and 2724 basis functions

 Total QAlloc Memory Limit 120000 MB
 Mega-Array Size      7821 MB
 MEM_STATIC part      8000 MB

 A cutoff of  1.0D-12 yielded 319520 shell pairs
 There are   2287020 function pairs (   2911975 Cartesian)
 Smallest overlap matrix eigenvalue = 7.93E-09
 Linear dependence detected in AO basis
 Tighter screening thresholds may be required for diffuse basis sets
 Use S2THRESH > 14 and THRESH = 14 in case of SCF convergence issues
 Number of orthogonalized atomic orbitals = 2662
 Maximum deviation from orthogonality = 4.004E-10

 Scale SEOQF with 1.000000e-02/1.000000e-02/1.000000e-01

 Standard Electronic Orientation quadrupole field applied
 Nucleus-field energy     =    -0.0000001055 hartrees
 Guess MOs from SCF MO coefficient file

 -----------------------------------------------------------------------
  General SCF calculation program by
  Eric Jon Sundstrom, Paul Horn, Yuezhi Mao, Dmitri Zuev, Alec White,
  David Stuck, Shaama M.S., Shane Yost, Joonho Lee, David Small,
  Daniel Levine, Susi Lehtola, Hugh Burton, Evgeny Epifanovsky,
  Bang C. Huynh
 -----------------------------------------------------------------------
 Exchange:     0.2288 Hartree-Fock + 1.0000 COACH + LR-HF
 Correlation:  1.0000 COACH
 Using Euler-Maclaurin-Lebedev (99,590) quadrature formula
 Nonlocal Correlation:  VV10 with C = 0.0100 and b = 5.50 and scale = 1.00000
 Grid used for NLC:  SG-1 standard quadrature
 Dispersion:   Grimme D4
 using 128 threads for integral computing
 -------------------------------------------------------
 OpenMP Integral computing Module                
 Release: version 1.0, May 2013, Q-Chem Inc. Pittsburgh 
 -------------------------------------------------------
 A unrestricted SCF calculation will be
 performed using GDM
 SCF converges when RMS gradient is below 1.0e-06
 User-specified cutoff of 10e-12
 used for neglect of 2-electron integrals.
 A cutoff of 10e-12
 used for neglect of overlap integrals.
 Incremental Fock algorithm is on at the start.
 ---------------------------------------
  Cycle       Energy        RMS Gradient
 ---------------------------------------
    1   -2296.9385749428      8.10e-07  Convergence criterion met
 ---------------------------------------
 SCF time:   CPU 119102.15s  wall 3411.00s 
<S^2> =          0.047063198
 SCF   energy = -2296.93857494
 Total energy = -2296.93857494
 Integrated density by DFT XC:
   Number of electrons = 386
   Numerical integral  =   385.999990848345
   Relative error      =     0.0000023709 %
 
 --------------------------------------------------------------
 
                    Orbital Energies (a.u.)
 --------------------------------------------------------------
 
 Alpha MOs
 -- Occupied --
-14.5795 -14.5792 -14.5789 -14.5786 -10.4890 -10.4874 -10.4733 -10.4723
-10.4562 -10.4560 -10.4558 -10.4555 -10.4301 -10.4290 -10.4289 -10.4278
-10.4136 -10.4136 -10.4123 -10.4123 -10.4116 -10.4116 -10.4102 -10.4102
-10.4023 -10.4023 -10.4021 -10.4018 -10.4018 -10.4016 -10.4015 -10.4013
-10.4011 -10.4010 -10.4005 -10.4003 -10.4003 -10.4003 -10.3998 -10.3995
-10.3994 -10.3993 -10.3991 -10.3990 -10.3989 -10.3989 -10.3989 -10.3988
-10.3978 -10.3969 -10.3967 -10.3963 -10.3962 -10.3961 -10.3957 -10.3956
-10.3956 -10.3952  -1.0806  -1.0752  -1.0607  -1.0575  -1.0568  -1.0558
 -1.0500  -1.0445  -1.0417  -1.0007  -0.9939  -0.9873  -0.9722  -0.9534
 -0.9494  -0.9338  -0.9246  -0.9126  -0.9082  -0.8999  -0.8892  -0.8815
 -0.8725  -0.8712  -0.8653  -0.8523  -0.8486  -0.8354  -0.8345  -0.8251
 -0.8165  -0.7991  -0.7938  -0.7775  -0.7627  -0.7569  -0.7475  -0.7382
 -0.7370  -0.7331  -0.7145  -0.7112  -0.7089  -0.7066  -0.7001  -0.6950
 -0.6945  -0.6883  -0.6841  -0.6612  -0.6574  -0.6457  -0.6431  -0.6411
 -0.6354  -0.6283  -0.6204  -0.6088  -0.6053  -0.5916  -0.5900  -0.5866
 -0.5808  -0.5787  -0.5739  -0.5721  -0.5659  -0.5648  -0.5635  -0.5630
 -0.5610  -0.5505  -0.5434  -0.5426  -0.5371  -0.5320  -0.5285  -0.5283
 -0.5279  -0.5258  -0.5225  -0.5216  -0.5205  -0.5192  -0.5126  -0.5116
 -0.5082  -0.5080  -0.5060  -0.5058  -0.4986  -0.4963  -0.4930  -0.4856
 -0.4846  -0.4807  -0.4774  -0.4769  -0.4758  -0.4734  -0.4712  -0.4690
 -0.4684  -0.4641  -0.4634  -0.4612  -0.4584  -0.4581  -0.4577  -0.4575
 -0.4479  -0.4464  -0.4456  -0.4420  -0.4398  -0.4376  -0.4321  -0.4300
 -0.4285  -0.4262  -0.4253  -0.4212  -0.4190  -0.3889  -0.3550  -0.3503
 -0.3488  -0.3471  -0.3444  -0.3441  -0.3423  -0.3302  -0.3238  -0.3141
 -0.2975
 -- Virtual --
 -0.1020   0.0249   0.0280   0.0291   0.0297   0.0358   0.0381   0.0407
  0.0425   0.0460   0.0477   0.0482   0.0499   0.0535   0.0551   0.0561
  0.0578   0.0583   0.0591   0.0622   0.0637   0.0662   0.0671   0.0692
  0.0714   0.0730   0.0780   0.0786   0.0787   0.0832   0.0873   0.0875
  0.0893   0.0898   0.0905   0.0907   0.0942   0.1007   0.1030   0.1033
  0.1064   0.1078   0.1085   0.1110   0.1128   0.1148   0.1156   0.1170
  0.1199   0.1227   0.1244   0.1253   0.1318   0.1318   0.1326   0.1392
  0.1396   0.1436   0.1458   0.1468   0.1470   0.1494   0.1508   0.1581
  0.1584   0.1586   0.1606   0.1641   0.1673   0.1683   0.1701   0.1724
  0.1786   0.1799   0.1829   0.1833   0.1844   0.1859   0.1897   0.1897
  0.1914   0.1919   0.1950   0.1973   0.1992   0.1994   0.2018   0.2020
  0.2035   0.2049   0.2077   0.2087   0.2120   0.2135   0.2143   0.2145
  0.2170   0.2178   0.2195   0.2203   0.2230   0.2246   0.2255   0.2272
  0.2284   0.2294   0.2300   0.2325   0.2364   0.2369   0.2374   0.2381
  0.2383   0.2419   0.2423   0.2445   0.2452   0.2464   0.2472   0.2495
  0.2522   0.2523   0.2543   0.2552   0.2570   0.2575   0.2589   0.2601
  0.2618   0.2619   0.2649   0.2666   0.2673   0.2690   0.2710   0.2712
  0.2717   0.2722   0.2760   0.2776   0.2778   0.2781   0.2789   0.2800
  0.2832   0.2852   0.2866   0.2869   0.2880   0.2911   0.2919   0.2949
  0.2951   0.2971   0.2979   0.2996   0.3001   0.3023   0.3030   0.3039
  0.3047   0.3048   0.3054   0.3061   0.3081   0.3096   0.3119   0.3120
  0.3125   0.3144   0.3163   0.3177   0.3193   0.3200   0.3204   0.3218
  0.3233   0.3242   0.3244   0.3269   0.3279   0.3281   0.3308   0.3327
  0.3337   0.3369   0.3376   0.3393   0.3402   0.3421   0.3441   0.3452
  0.3457   0.3474   0.3490   0.3496   0.3502   0.3516   0.3532   0.3541
  0.3562   0.3565   0.3601   0.3603   0.3653   0.3655   0.3662   0.3667
  0.3691   0.3703   0.3713   0.3721   0.3733   0.3733   0.3773   0.3779
  0.3794   0.3799   0.3803   0.3812   0.3836   0.3864   0.3876   0.3882
  0.3889   0.3903   0.3907   0.3945   0.3950   0.3956   0.3962   0.3968
  0.3985   0.3989   0.3998   0.4029   0.4041   0.4043   0.4054   0.4059
  0.4081   0.4082   0.4102   0.4114   0.4128   0.4164   0.4172   0.4184
  0.4186   0.4210   0.4237   0.4240   0.4253   0.4276   0.4292   0.4300
  0.4306   0.4308   0.4320   0.4327   0.4345   0.4366   0.4371   0.4374
  0.4378   0.4386   0.4405   0.4408   0.4427   0.4431   0.4440   0.4445
  0.4448   0.4466   0.4474   0.4493   0.4496   0.4513   0.4516   0.4531
  0.4539   0.4548   0.4575   0.4582   0.4592   0.4609   0.4622   0.4634
  0.4649   0.4670   0.4671   0.4678   0.4695   0.4698   0.4723   0.4733
  0.4744   0.4756   0.4775   0.4782   0.4786   0.4810   0.4830   0.4830
  0.4836   0.4866   0.4892   0.4905   0.4914   0.4939   0.4943   0.4946
  0.4976   0.4996   0.5009   0.5015   0.5042   0.5065   0.5066   0.5092
  0.5107   0.5120   0.5127   0.5165   0.5170   0.5207   0.5228   0.5235
  0.5249   0.5264   0.5271   0.5272   0.5287   0.5306   0.5310   0.5335
  0.5347   0.5361   0.5380   0.5391   0.5403   0.5408   0.5426   0.5439
  0.5474   0.5479   0.5490   0.5501   0.5534   0.5541   0.5552   0.5559
  0.5569   0.5575   0.5589   0.5609   0.5619   0.5635   0.5670   0.5677
  0.5687   0.5711   0.5714   0.5745   0.5762   0.5770   0.5775   0.5788
  0.5796   0.5809   0.5841   0.5852   0.5875   0.5883   0.5890   0.5941
  0.5947   0.5961   0.5980   0.5985   0.5993   0.5996   0.6020   0.6044
  0.6049   0.6085   0.6095   0.6106   0.6120   0.6149   0.6152   0.6184
  0.6191   0.6201   0.6204   0.6210   0.6261   0.6266   0.6277   0.6289
  0.6299   0.6310   0.6320   0.6344   0.6347   0.6375   0.6396   0.6401
  0.6414   0.6431   0.6441   0.6459   0.6483   0.6491   0.6492   0.6523
  0.6537   0.6545   0.6549   0.6592   0.6594   0.6613   0.6617   0.6638
  0.6654   0.6656   0.6672   0.6694   0.6699   0.6709   0.6725   0.6744
  0.6758   0.6775   0.6796   0.6826   0.6839   0.6846   0.6855   0.6873
  0.6883   0.6890   0.6921   0.6924   0.6939   0.6955   0.6970   0.6983
  0.6986   0.6994   0.6996   0.7005   0.7016   0.7037   0.7056   0.7063
  0.7075   0.7086   0.7111   0.7122   0.7126   0.7134   0.7151   0.7164
  0.7180   0.7197   0.7204   0.7207   0.7228   0.7244   0.7276   0.7284
  0.7294   0.7297   0.7300   0.7338   0.7344   0.7349   0.7363   0.7394
  0.7399   0.7423   0.7429   0.7447   0.7451   0.7457   0.7472   0.7480
  0.7487   0.7493   0.7498   0.7533   0.7537   0.7552   0.7564   0.7579
  0.7597   0.7602   0.7612   0.7630   0.7634   0.7658   0.7668   0.7689
  0.7695   0.7712   0.7724   0.7727   0.7741   0.7753   0.7763   0.7772
  0.7788   0.7797   0.7823   0.7834   0.7851   0.7856   0.7870   0.7873
  0.7883   0.7925   0.7928   0.7930   0.7942   0.7947   0.7958   0.7967
  0.7973   0.7993   0.8018   0.8020   0.8027   0.8035   0.8057   0.8062
  0.8078   0.8114   0.8116   0.8129   0.8142   0.8162   0.8174   0.8176
  0.8201   0.8202   0.8233   0.8241   0.8245   0.8264   0.8298   0.8306
  0.8308   0.8316   0.8322   0.8325   0.8372   0.8380   0.8384   0.8393
  0.8398   0.8416   0.8434   0.8451   0.8460   0.8466   0.8470   0.8484
  0.8504   0.8516   0.8529   0.8541   0.8544   0.8578   0.8580   0.8596
  0.8598   0.8611   0.8637   0.8646   0.8651   0.8677   0.8679   0.8681
  0.8691   0.8720   0.8724   0.8733   0.8740   0.8756   0.8757   0.8770
  0.8777   0.8800   0.8801   0.8827   0.8857   0.8862   0.8869   0.8877
  0.8904   0.8909   0.8914   0.8937   0.8940   0.8951   0.8975   0.9011
  0.9041   0.9056   0.9071   0.9078   0.9095   0.9119   0.9132   0.9146
  0.9147   0.9161   0.9175   0.9179   0.9193   0.9215   0.9226   0.9259
  0.9263   0.9276   0.9290   0.9301   0.9305   0.9327   0.9348   0.9351
  0.9364   0.9379   0.9401   0.9409   0.9426   0.9445   0.9465   0.9484
  0.9503   0.9515   0.9518   0.9519   0.9560   0.9572   0.9615   0.9621
  0.9636   0.9656   0.9670   0.9672   0.9683   0.9691   0.9726   0.9733
  0.9764   0.9769   0.9804   0.9827   0.9857   0.9860   0.9886   0.9901
  0.9921   0.9924   0.9946   0.9972   0.9981   1.0002   1.0031   1.0084
  1.0085   1.0094   1.0121   1.0134   1.0159   1.0163   1.0170   1.0192
  1.0196   1.0228   1.0243   1.0259   1.0271   1.0290   1.0301   1.0332
  1.0344   1.0378   1.0407   1.0426   1.0430   1.0447   1.0450   1.0481
  1.0497   1.0528   1.0535   1.0557   1.0583   1.0615   1.0631   1.0642
  1.0677   1.0710   1.0720   1.0745   1.0752   1.0784   1.0788   1.0810
  1.0814   1.0835   1.0847   1.0868   1.0874   1.0884   1.0912   1.0916
  1.0964   1.0991   1.1029   1.1039   1.1060   1.1070   1.1072   1.1100
  1.1160   1.1174   1.1181   1.1187   1.1216   1.1244   1.1256   1.1260
  1.1281   1.1307   1.1322   1.1348   1.1379   1.1412   1.1441   1.1446
  1.1458   1.1473   1.1473   1.1506   1.1536   1.1574   1.1596   1.1620
  1.1635   1.1653   1.1691   1.1699   1.1755   1.1756   1.1789   1.1793
  1.1826   1.1856   1.1858   1.1871   1.1886   1.1940   1.1950   1.1993
  1.1995   1.2021   1.2025   1.2045   1.2071   1.2088   1.2101   1.2151
  1.2165   1.2181   1.2186   1.2204   1.2236   1.2250   1.2279   1.2283
  1.2339   1.2359   1.2382   1.2424   1.2460   1.2463   1.2467   1.2477
  1.2513   1.2537   1.2597   1.2610   1.2631   1.2635   1.2659   1.2699
  1.2713   1.2749   1.2775   1.2796   1.2807   1.2831   1.2848   1.2875
  1.2886   1.2897   1.2942   1.2966   1.2996   1.3007   1.3047   1.3069
  1.3105   1.3108   1.3123   1.3180   1.3184   1.3196   1.3213   1.3251
  1.3278   1.3302   1.3325   1.3345   1.3371   1.3377   1.3431   1.3455
  1.3479   1.3497   1.3499   1.3551   1.3559   1.3577   1.3597   1.3610
  1.3630   1.3640   1.3671   1.3675   1.3685   1.3706   1.3755   1.3767
  1.3776   1.3798   1.3835   1.3891   1.3910   1.3962   1.3975   1.4006
  1.4036   1.4048   1.4087   1.4120   1.4135   1.4157   1.4165   1.4191
  1.4214   1.4245   1.4249   1.4283   1.4288   1.4326   1.4337   1.4360
  1.4378   1.4404   1.4406   1.4426   1.4446   1.4452   1.4522   1.4544
  1.4566   1.4603   1.4610   1.4615   1.4673   1.4694   1.4720   1.4731
  1.4764   1.4771   1.4778   1.4809   1.4830   1.4840   1.4846   1.4868
  1.4883   1.4891   1.4953   1.4960   1.4964   1.4971   1.4984   1.5001
  1.5027   1.5057   1.5082   1.5097   1.5106   1.5115   1.5135   1.5145
  1.5194   1.5209   1.5222   1.5224   1.5246   1.5255   1.5266   1.5292
  1.5326   1.5367   1.5376   1.5400   1.5421   1.5456   1.5460   1.5487
  1.5499   1.5508   1.5528   1.5552   1.5560   1.5562   1.5597   1.5604
  1.5613   1.5660   1.5731   1.5732   1.5746   1.5752   1.5777   1.5787
  1.5856   1.5862   1.5874   1.5880   1.5887   1.5919   1.5955   1.5971
  1.5979   1.6008   1.6019   1.6048   1.6070   1.6094   1.6107   1.6123
  1.6156   1.6163   1.6210   1.6219   1.6225   1.6246   1.6252   1.6270
  1.6288   1.6307   1.6344   1.6363   1.6385   1.6389   1.6416   1.6433
  1.6492   1.6524   1.6543   1.6546   1.6574   1.6582   1.6608   1.6633
  1.6642   1.6659   1.6672   1.6688   1.6701   1.6738   1.6750   1.6770
  1.6793   1.6803   1.6838   1.6869   1.6879   1.6879   1.6922   1.6932
  1.6963   1.6972   1.6997   1.7021   1.7024   1.7096   1.7098   1.7125
  1.7140   1.7158   1.7163   1.7175   1.7205   1.7225   1.7281   1.7286
  1.7308   1.7353   1.7355   1.7394   1.7404   1.7413   1.7429   1.7443
  1.7477   1.7506   1.7546   1.7546   1.7578   1.7586   1.7598   1.7642
  1.7644   1.7662   1.7687   1.7721   1.7739   1.7761   1.7770   1.7811
  1.7852   1.7855   1.7880   1.7912   1.7917   1.7953   1.7998   1.8010
  1.8043   1.8051   1.8095   1.8115   1.8154   1.8160   1.8199   1.8227
  1.8260   1.8286   1.8297   1.8369   1.8373   1.8413   1.8452   1.8477
  1.8501   1.8515   1.8559   1.8602   1.8623   1.8663   1.8699   1.8724
  1.8741   1.8763   1.8793   1.8831   1.8861   1.8898   1.8953   1.8964
  1.8978   1.8989   1.9047   1.9054   1.9068   1.9128   1.9131   1.9168
  1.9250   1.9251   1.9299   1.9320   1.9340   1.9389   1.9407   1.9415
  1.9439   1.9503   1.9508   1.9521   1.9580   1.9614   1.9648   1.9684
  1.9725   1.9742   1.9747   1.9761   1.9789   1.9830   1.9841   1.9855
  1.9859   1.9928   1.9975   1.9996   2.0020   2.0042   2.0080   2.0093
  2.0112   2.0118   2.0141   2.0199   2.0253   2.0264   2.0293   2.0314
  2.0335   2.0394   2.0431   2.0434   2.0474   2.0475   2.0567   2.0585
  2.0618   2.0623   2.0662   2.0750   2.0778   2.0793   2.0808   2.0842
  2.0848   2.0867   2.0956   2.0995   2.1056   2.1084   2.1108   2.1132
  2.1173   2.1193   2.1274   2.1285   2.1354   2.1361   2.1376   2.1422
  2.1429   2.1466   2.1488   2.1542   2.1580   2.1629   2.1652   2.1694
  2.1722   2.1750   2.1764   2.1798   2.1826   2.1849   2.1931   2.1970
  2.1978   2.2012   2.2026   2.2055   2.2083   2.2084   2.2162   2.2199
  2.2255   2.2265   2.2273   2.2303   2.2364   2.2377   2.2387   2.2440
  2.2466   2.2494   2.2527   2.2543   2.2621   2.2655   2.2661   2.2722
  2.2746   2.2781   2.2853   2.2868   2.2928   2.2935   2.2952   2.2990
  2.3039   2.3052   2.3141   2.3206   2.3263   2.3291   2.3311   2.3372
  2.3405   2.3410   2.3436   2.3452   2.3551   2.3576   2.3638   2.3663
  2.3675   2.3734   2.3774   2.3804   2.3816   2.3849   2.3904   2.3915
  2.3941   2.3946   2.3961   2.4000   2.4005   2.4038   2.4090   2.4101
  2.4131   2.4161   2.4195   2.4209   2.4271   2.4324   2.4325   2.4356
  2.4401   2.4429   2.4467   2.4537   2.4547   2.4571   2.4592   2.4614
  2.4647   2.4656   2.4681   2.4727   2.4758   2.4781   2.4802   2.4875
  2.4915   2.4946   2.4950   2.5019   2.5029   2.5072   2.5092   2.5124
  2.5147   2.5192   2.5195   2.5202   2.5247   2.5270   2.5316   2.5318
  2.5350   2.5419   2.5429   2.5502   2.5512   2.5519   2.5567   2.5626
  2.5633   2.5692   2.5715   2.5749   2.5798   2.5811   2.5838   2.5854
  2.5891   2.5932   2.5949   2.6008   2.6037   2.6051   2.6098   2.6120
  2.6176   2.6225   2.6230   2.6247   2.6251   2.6351   2.6393   2.6398
  2.6455   2.6479   2.6534   2.6594   2.6607   2.6653   2.6660   2.6725
  2.6741   2.6826   2.6843   2.6854   2.6955   2.6982   2.7025   2.7027
  2.7054   2.7091   2.7121   2.7143   2.7159   2.7207   2.7223   2.7237
  2.7323   2.7358   2.7431   2.7460   2.7479   2.7490   2.7510   2.7623
  2.7628   2.7671   2.7677   2.7753   2.7766   2.7844   2.7864   2.7889
  2.7897   2.7904   2.7955   2.7992   2.8071   2.8080   2.8092   2.8134
  2.8155   2.8184   2.8224   2.8236   2.8285   2.8287   2.8296   2.8347
  2.8387   2.8418   2.8463   2.8476   2.8482   2.8518   2.8521   2.8572
  2.8599   2.8632   2.8651   2.8669   2.8690   2.8695   2.8719   2.8748
  2.8755   2.8783   2.8840   2.8867   2.8895   2.8908   2.8937   2.8988
  2.9008   2.9026   2.9061   2.9086   2.9090   2.9133   2.9161   2.9169
  2.9175   2.9233   2.9239   2.9281   2.9299   2.9305   2.9345   2.9351
  2.9389   2.9425   2.9462   2.9513   2.9521   2.9610   2.9665   2.9669
  2.9683   2.9727   2.9765   2.9792   2.9805   2.9855   2.9871   2.9900
  2.9920   2.9938   2.9998   3.0041   3.0080   3.0087   3.0111   3.0181
  3.0186   3.0201   3.0231   3.0237   3.0285   3.0292   3.0335   3.0341
  3.0438   3.0455   3.0511   3.0548   3.0560   3.0607   3.0641   3.0685
  3.0722   3.0745   3.0760   3.0796   3.0815   3.0865   3.0883   3.0899
  3.0920   3.0982   3.1010   3.1102   3.1116   3.1137   3.1163   3.1181
  3.1201   3.1231   3.1239   3.1309   3.1321   3.1339   3.1379   3.1449
  3.1466   3.1499   3.1584   3.1615   3.1655   3.1672   3.1693   3.1721
  3.1786   3.1815   3.1842   3.1848   3.1891   3.1917   3.1960   3.1990
  3.1992   3.2026   3.2060   3.2079   3.2113   3.2135   3.2140   3.2200
  3.2224   3.2230   3.2251   3.2267   3.2293   3.2312   3.2347   3.2354
  3.2375   3.2397   3.2401   3.2450   3.2461   3.2479   3.2510   3.2520
  3.2554   3.2600   3.2617   3.2631   3.2667   3.2673   3.2706   3.2718
  3.2753   3.2766   3.2770   3.2783   3.2857   3.2867   3.2872   3.2875
  3.2940   3.2950   3.2965   3.2982   3.3026   3.3063   3.3074   3.3083
  3.3089   3.3147   3.3156   3.3186   3.3189   3.3209   3.3266   3.3281
  3.3286   3.3314   3.3357   3.3364   3.3427   3.3428   3.3448   3.3472
  3.3477   3.3497   3.3531   3.3535   3.3584   3.3606   3.3614   3.3625
  3.3637   3.3658   3.3688   3.3694   3.3712   3.3733   3.3797   3.3826
  3.3839   3.3868   3.3878   3.3909   3.3928   3.3939   3.3950   3.3970
  3.3971   3.3982   3.3993   3.3998   3.4030   3.4034   3.4049   3.4057
  3.4103   3.4137   3.4169   3.4183   3.4219   3.4225   3.4229   3.4251
  3.4259   3.4306   3.4321   3.4343   3.4368   3.4386   3.4387   3.4408
  3.4433   3.4459   3.4476   3.4502   3.4507   3.4548   3.4583   3.4603
  3.4604   3.4615   3.4640   3.4676   3.4694   3.4717   3.4741   3.4745
  3.4783   3.4822   3.4831   3.4841   3.4878   3.4898   3.4920   3.4947
  3.4961   3.4979   3.5009   3.5080   3.5091   3.5134   3.5147   3.5160
  3.5193   3.5203   3.5244   3.5251   3.5259   3.5299   3.5320   3.5333
  3.5351   3.5363   3.5398   3.5440   3.5468   3.5479   3.5488   3.5558
  3.5583   3.5591   3.5602   3.5614   3.5654   3.5663   3.5666   3.5707
  3.5725   3.5757   3.5784   3.5803   3.5808   3.5849   3.5852   3.5868
  3.5890   3.5913   3.5927   3.5965   3.5986   3.5998   3.6036   3.6061
  3.6069   3.6084   3.6111   3.6128   3.6142   3.6192   3.6224   3.6238
  3.6275   3.6281   3.6291   3.6303   3.6323   3.6373   3.6380   3.6397
  3.6461   3.6484   3.6495   3.6512   3.6541   3.6558   3.6572   3.6612
  3.6643   3.6650   3.6667   3.6688   3.6705   3.6723   3.6773   3.6810
  3.6841   3.6867   3.6901   3.6925   3.6955   3.6974   3.6989   3.7014
  3.7026   3.7035   3.7080   3.7125   3.7133   3.7138   3.7169   3.7199
  3.7212   3.7222   3.7251   3.7265   3.7314   3.7341   3.7350   3.7359
  3.7411   3.7427   3.7429   3.7437   3.7491   3.7508   3.7512   3.7536
  3.7561   3.7573   3.7595   3.7655   3.7673   3.7680   3.7737   3.7744
  3.7764   3.7773   3.7800   3.7827   3.7851   3.7865   3.7873   3.7885
  3.7924   3.7992   3.8016   3.8022   3.8035   3.8038   3.8067   3.8096
  3.8122   3.8130   3.8140   3.8178   3.8209   3.8253   3.8258   3.8268
  3.8290   3.8325   3.8348   3.8350   3.8393   3.8396   3.8399   3.8441
  3.8447   3.8454   3.8468   3.8517   3.8526   3.8564   3.8608   3.8617
  3.8636   3.8648   3.8651   3.8704   3.8754   3.8764   3.8786   3.8794
  3.8833   3.8854   3.8881   3.8906   3.8913   3.8920   3.8964   3.8971
  3.9011   3.9037   3.9055   3.9067   3.9112   3.9117   3.9148   3.9181
  3.9184   3.9217   3.9225   3.9250   3.9292   3.9307   3.9360   3.9361
  3.9407   3.9413   3.9463   3.9477   3.9507   3.9530   3.9560   3.9564
  3.9603   3.9616   3.9630   3.9657   3.9664   3.9669   3.9692   3.9756
  3.9757   3.9780   3.9802   3.9826   3.9858   3.9866   3.9891   3.9906
  3.9911   4.0009   4.0024   4.0051   4.0063   4.0082   4.0114   4.0133
  4.0183   4.0211   4.0215   4.0242   4.0253   4.0295   4.0301   4.0338
  4.0344   4.0373   4.0380   4.0444   4.0454   4.0516   4.0538   4.0561
  4.0567   4.0637   4.0691   4.0706   4.0716   4.0793   4.0796   4.0836
  4.0852   4.0880   4.0895   4.0936   4.0941   4.0974   4.0996   4.1039
  4.1052   4.1060   4.1076   4.1115   4.1143   4.1154   4.1179   4.1201
  4.1228   4.1235   4.1246   4.1273   4.1294   4.1299   4.1326   4.1387
  4.1401   4.1461   4.1467   4.1494   4.1505   4.1554   4.1560   4.1591
  4.1626   4.1633   4.1685   4.1714   4.1741   4.1775   4.1799   4.1871
  4.1927   4.1929   4.1948   4.1982   4.2015   4.2023   4.2059   4.2103
  4.2110   4.2126   4.2164   4.2176   4.2198   4.2282   4.2288   4.2321
  4.2335   4.2439   4.2456   4.2473   4.2514   4.2554   4.2557   4.2618
  4.2639   4.2690   4.2778   4.2796   4.2802   4.2817   4.2873   4.2889
  4.2911   4.2939   4.2970   4.2980   4.3047   4.3053   4.3093   4.3106
  4.3121   4.3141   4.3190   4.3208   4.3212   4.3227   4.3232   4.3268
  4.3332   4.3354   4.3394   4.3415   4.3430   4.3448   4.3540   4.3573
  4.3578   4.3588   4.3613   4.3677   4.3743   4.3765   4.3771   4.3778
  4.3798   4.3852   4.3862   4.3919   4.3921   4.3950   4.4026   4.4067
  4.4071   4.4107   4.4138   4.4142   4.4156   4.4167   4.4219   4.4225
  4.4289   4.4331   4.4352   4.4355   4.4386   4.4400   4.4409   4.4433
  4.4455   4.4497   4.4510   4.4541   4.4547   4.4579   4.4605   4.4616
  4.4641   4.4672   4.4688   4.4696   4.4717   4.4797   4.4807   4.4845
  4.4848   4.4885   4.4900   4.4916   4.4948   4.4954   4.5012   4.5043
  4.5059   4.5062   4.5076   4.5093   4.5116   4.5168   4.5178   4.5207
  4.5223   4.5226   4.5253   4.5262   4.5293   4.5337   4.5365   4.5427
  4.5444   4.5481   4.5512   4.5515   4.5524   4.5561   4.5577   4.5666
  4.5678   4.5710   4.5775   4.5814   4.5870   4.5895   4.5933   4.5946
  4.5977   4.6021   4.6050   4.6066   4.6098   4.6125   4.6132   4.6177
  4.6186   4.6204   4.6224   4.6286   4.6291   4.6314   4.6366   4.6375
  4.6397   4.6409   4.6441   4.6451   4.6482   4.6492   4.6571   4.6604
  4.6606   4.6621   4.6692   4.6792   4.6803   4.6829   4.6858   4.6872
  4.6877   4.6887   4.6994   4.7037   4.7117   4.7130   4.7146   4.7186
  4.7204   4.7212   4.7234   4.7292   4.7296   4.7351   4.7357   4.7426
  4.7437   4.7470   4.7512   4.7564   4.7612   4.7641   4.7646   4.7669
  4.7714   4.7727   4.7766   4.7774   4.7807   4.7834   4.7835   4.7867
  4.7927   4.7968   4.7975   4.8006   4.8037   4.8061   4.8071   4.8108
  4.8146   4.8189   4.8220   4.8232   4.8242   4.8289   4.8299   4.8371
  4.8374   4.8464   4.8480   4.8555   4.8597   4.8607   4.8646   4.8724
  4.8738   4.8743   4.8760   4.8839   4.8870   4.8906   4.8951   4.8972
  4.9009   4.9043   4.9047   4.9107   4.9121   4.9144   4.9164   4.9197
  4.9213   4.9258   4.9310   4.9324   4.9338   4.9354   4.9436   4.9456
  4.9486   4.9517   4.9569   4.9622   4.9650   4.9742   4.9765   4.9822
  4.9866   4.9885   4.9922   4.9956   4.9959   5.0028   5.0043   5.0091
  5.0093   5.0144   5.0177   5.0207   5.0238   5.0268   5.0272   5.0336
  5.0397   5.0406   5.0491   5.0505   5.0520   5.0527   5.0602   5.0643
  5.0711   5.0733   5.0779   5.0836   5.0851   5.0940   5.0950   5.1004
  5.1086   5.1093   5.1177   5.1204   5.1291   5.1347   5.1471   5.1534
  5.1648   5.1750   5.1770   5.1894   5.1909   5.1936   5.2001   5.2058
  5.2074   5.2078   5.2210   5.2212   5.2231   5.2281   5.2336   5.2339
  5.2411   5.2471   5.2476   5.2524   5.2542   5.2568   5.2608   5.2638
  5.2643   5.2686   5.2759   5.2793   5.2795   5.2799   5.2902   5.2914
  5.2959   5.2976   5.3009   5.3012   5.3081   5.3108   5.3135   5.3149
  5.3200   5.3309   5.3333   5.3358   5.3366   5.3452   5.3487   5.3507
  5.3544   5.3600   5.3708   5.3741   5.3772   5.3805   5.3850   5.3870
  5.3885   5.3908   5.3946   5.3967   5.3979   5.4016   5.4065   5.4103
  5.4105   5.4167   5.4172   5.4197   5.4222   5.4265   5.4285   5.4345
  5.4453   5.4512   5.4589   5.4680   5.4782   5.4940   5.4990   5.4994
  5.5051   5.5239   5.5284   5.5308   5.5351   5.5409   5.5440   5.5628
  5.5650   5.5670   5.5747   5.5762   5.5865   5.5878   5.5910   5.5929
  5.6064   5.6158   5.6211   5.6218   5.6277   5.6334   5.6390   5.6491
  5.6528   5.6544   5.6588   5.6685   5.6761   5.6764   5.6814   5.6878
  5.7085   5.7090   5.7110   5.7191   5.7201   5.7235   5.7400   5.7428
  5.7471   5.7635   5.7763   5.7882   5.8066   5.8173   5.8221   5.8301
  5.8388   5.8535   5.8550   5.8604   5.8726   5.8837   5.8866   5.8885
  5.8974   5.8997   5.9024   5.9164   5.9272   5.9390   5.9396   5.9430
  5.9440   5.9475   5.9672   5.9694   5.9723   5.9844   5.9912   5.9984
  6.0061   6.0151   6.0157   6.0240   6.0288   6.0384   6.0455   6.0511
  6.0519   6.0544   6.0657   6.0841   6.0875   6.0916   6.1000   6.1107
  6.1263   6.1457   6.1484   6.1594   6.1646   6.1663   6.1754   6.1906
  6.1965   6.2055   6.2079   6.2385   6.2826   6.2916   6.3018   6.4347
  6.4472   6.4871   6.4890   6.5242   6.5284   6.5310   6.5423   6.6389
  6.7245   6.7293   6.9117  24.0244  24.0519  24.0661  24.0714  24.1004
 24.1100  24.1213  24.1487  24.1995  24.2223  24.2620  24.2768  24.2796
 24.2853  24.2959  24.3071  24.3154  24.3548  24.3612  24.3814  24.3904
 24.3988  24.4233  24.4540  24.4736  24.4806  24.4879  24.5018  24.5361
 24.5661  24.5785  24.5838  24.5999  24.6052  24.6235  24.6245  24.6306
 24.6548  24.6570  24.6608  24.6668  24.6740  24.6838  24.6868  24.7084
 24.7416  24.9031  25.0129  25.0868  25.0929  25.1239  25.1465  25.1534
 25.3366  33.7440  33.8038  33.8075  33.8436
 
 Beta MOs
 -- Occupied --
-14.5795 -14.5793 -14.5789 -14.5786 -10.4890 -10.4874 -10.4733 -10.4724
-10.4562 -10.4560 -10.4558 -10.4555 -10.4301 -10.4290 -10.4289 -10.4278
-10.4136 -10.4136 -10.4123 -10.4123 -10.4116 -10.4116 -10.4102 -10.4102
-10.4023 -10.4023 -10.4021 -10.4018 -10.4018 -10.4016 -10.4015 -10.4013
-10.4011 -10.4010 -10.4005 -10.4003 -10.4003 -10.4003 -10.3998 -10.3995
-10.3994 -10.3993 -10.3991 -10.3990 -10.3989 -10.3989 -10.3989 -10.3988
-10.3978 -10.3969 -10.3967 -10.3963 -10.3962 -10.3961 -10.3957 -10.3956
-10.3956 -10.3952  -1.0806  -1.0752  -1.0607  -1.0575  -1.0568  -1.0558
 -1.0500  -1.0445  -1.0417  -1.0007  -0.9939  -0.9874  -0.9722  -0.9534
 -0.9494  -0.9338  -0.9246  -0.9126  -0.9082  -0.8999  -0.8892  -0.8815
 -0.8725  -0.8712  -0.8653  -0.8523  -0.8486  -0.8354  -0.8345  -0.8251
 -0.8165  -0.7991  -0.7938  -0.7775  -0.7627  -0.7569  -0.7475  -0.7382
 -0.7370  -0.7331  -0.7145  -0.7112  -0.7089  -0.7066  -0.7001  -0.6950
 -0.6945  -0.6883  -0.6841  -0.6612  -0.6574  -0.6457  -0.6431  -0.6411
 -0.6354  -0.6283  -0.6204  -0.6088  -0.6053  -0.5916  -0.5900  -0.5866
 -0.5808  -0.5787  -0.5739  -0.5721  -0.5659  -0.5648  -0.5635  -0.5630
 -0.5610  -0.5505  -0.5434  -0.5426  -0.5371  -0.5320  -0.5285  -0.5283
 -0.5280  -0.5258  -0.5225  -0.5216  -0.5205  -0.5192  -0.5127  -0.5115
 -0.5082  -0.5080  -0.5060  -0.5058  -0.4986  -0.4963  -0.4930  -0.4856
 -0.4846  -0.4807  -0.4774  -0.4769  -0.4758  -0.4734  -0.4712  -0.4690
 -0.4684  -0.4641  -0.4634  -0.4612  -0.4584  -0.4581  -0.4577  -0.4575
 -0.4479  -0.4464  -0.4456  -0.4420  -0.4398  -0.4376  -0.4321  -0.4300
 -0.4285  -0.4262  -0.4253  -0.4212  -0.4190  -0.3889  -0.3551  -0.3503
 -0.3488  -0.3471  -0.3444  -0.3441  -0.3423  -0.3302  -0.3238  -0.3141
 -0.2975
 -- Virtual --
 -0.1020   0.0249   0.0280   0.0291   0.0297   0.0358   0.0381   0.0407
  0.0425   0.0460   0.0477   0.0482   0.0499   0.0535   0.0551   0.0561
  0.0578   0.0583   0.0591   0.0622   0.0637   0.0662   0.0671   0.0692
  0.0714   0.0730   0.0780   0.0786   0.0787   0.0832   0.0873   0.0875
  0.0893   0.0898   0.0905   0.0907   0.0942   0.1007   0.1030   0.1033
  0.1064   0.1078   0.1085   0.1109   0.1128   0.1148   0.1156   0.1170
  0.1199   0.1227   0.1244   0.1253   0.1318   0.1318   0.1326   0.1392
  0.1396   0.1436   0.1458   0.1468   0.1470   0.1494   0.1508   0.1581
  0.1584   0.1587   0.1606   0.1641   0.1674   0.1683   0.1701   0.1724
  0.1786   0.1799   0.1829   0.1833   0.1844   0.1859   0.1897   0.1897
  0.1914   0.1919   0.1950   0.1973   0.1992   0.1994   0.2018   0.2020
  0.2035   0.2049   0.2077   0.2087   0.2120   0.2135   0.2143   0.2145
  0.2170   0.2178   0.2195   0.2203   0.2230   0.2246   0.2255   0.2272
  0.2284   0.2294   0.2300   0.2325   0.2364   0.2369   0.2374   0.2381
  0.2383   0.2419   0.2423   0.2445   0.2452   0.2464   0.2472   0.2495
  0.2522   0.2523   0.2543   0.2552   0.2570   0.2575   0.2589   0.2601
  0.2618   0.2619   0.2649   0.2666   0.2673   0.2690   0.2710   0.2712
  0.2717   0.2723   0.2760   0.2776   0.2778   0.2781   0.2789   0.2800
  0.2832   0.2852   0.2866   0.2868   0.2880   0.2911   0.2919   0.2949
  0.2951   0.2971   0.2979   0.2996   0.3001   0.3023   0.3030   0.3039
  0.3047   0.3049   0.3054   0.3062   0.3081   0.3096   0.3119   0.3120
  0.3125   0.3144   0.3163   0.3177   0.3193   0.3200   0.3205   0.3218
  0.3233   0.3242   0.3244   0.3269   0.3279   0.3281   0.3309   0.3327
  0.3337   0.3369   0.3376   0.3393   0.3402   0.3421   0.3441   0.3452
  0.3457   0.3474   0.3490   0.3496   0.3502   0.3516   0.3532   0.3540
  0.3562   0.3565   0.3601   0.3603   0.3653   0.3655   0.3662   0.3667
  0.3691   0.3703   0.3713   0.3721   0.3733   0.3733   0.3773   0.3779
  0.3794   0.3799   0.3803   0.3812   0.3836   0.3864   0.3876   0.3882
  0.3889   0.3903   0.3907   0.3945   0.3950   0.3956   0.3962   0.3968
  0.3985   0.3989   0.3997   0.4029   0.4041   0.4043   0.4054   0.4059
  0.4081   0.4082   0.4102   0.4114   0.4128   0.4164   0.4172   0.4184
  0.4186   0.4210   0.4238   0.4240   0.4253   0.4276   0.4292   0.4300
  0.4307   0.4308   0.4320   0.4327   0.4345   0.4366   0.4371   0.4374
  0.4378   0.4386   0.4405   0.4407   0.4428   0.4431   0.4440   0.4445
  0.4448   0.4466   0.4474   0.4493   0.4496   0.4513   0.4516   0.4531
  0.4539   0.4548   0.4575   0.4582   0.4592   0.4609   0.4622   0.4634
  0.4649   0.4670   0.4671   0.4678   0.4695   0.4698   0.4723   0.4733
  0.4744   0.4756   0.4775   0.4782   0.4786   0.4810   0.4830   0.4830
  0.4836   0.4866   0.4892   0.4905   0.4914   0.4939   0.4943   0.4946
  0.4976   0.4996   0.5009   0.5015   0.5042   0.5065   0.5066   0.5092
  0.5107   0.5120   0.5127   0.5165   0.5170   0.5207   0.5228   0.5235
  0.5249   0.5264   0.5271   0.5272   0.5287   0.5306   0.5310   0.5335
  0.5347   0.5361   0.5380   0.5391   0.5403   0.5408   0.5426   0.5439
  0.5474   0.5479   0.5490   0.5501   0.5534   0.5541   0.5552   0.5559
  0.5569   0.5575   0.5589   0.5609   0.5619   0.5635   0.5670   0.5677
  0.5687   0.5711   0.5714   0.5745   0.5762   0.5770   0.5775   0.5788
  0.5796   0.5809   0.5841   0.5852   0.5875   0.5883   0.5890   0.5941
  0.5947   0.5961   0.5980   0.5985   0.5993   0.5996   0.6020   0.6044
  0.6049   0.6085   0.6095   0.6106   0.6120   0.6149   0.6152   0.6184
  0.6191   0.6201   0.6204   0.6210   0.6261   0.6266   0.6277   0.6289
  0.6299   0.6310   0.6320   0.6344   0.6347   0.6375   0.6396   0.6401
  0.6414   0.6431   0.6441   0.6459   0.6483   0.6491   0.6492   0.6523
  0.6537   0.6545   0.6549   0.6592   0.6594   0.6613   0.6617   0.6638
  0.6654   0.6656   0.6672   0.6694   0.6699   0.6709   0.6725   0.6744
  0.6758   0.6775   0.6797   0.6826   0.6839   0.6846   0.6855   0.6873
  0.6883   0.6890   0.6921   0.6924   0.6939   0.6955   0.6970   0.6983
  0.6986   0.6994   0.6996   0.7005   0.7016   0.7037   0.7056   0.7063
  0.7075   0.7085   0.7111   0.7122   0.7126   0.7134   0.7151   0.7164
  0.7180   0.7197   0.7205   0.7206   0.7228   0.7244   0.7276   0.7284
  0.7294   0.7298   0.7300   0.7338   0.7344   0.7349   0.7363   0.7394
  0.7399   0.7424   0.7428   0.7447   0.7451   0.7457   0.7472   0.7479
  0.7487   0.7493   0.7498   0.7533   0.7538   0.7552   0.7564   0.7579
  0.7597   0.7603   0.7612   0.7630   0.7634   0.7659   0.7668   0.7689
  0.7695   0.7712   0.7724   0.7727   0.7741   0.7753   0.7763   0.7772
  0.7788   0.7797   0.7823   0.7834   0.7851   0.7856   0.7870   0.7873
  0.7883   0.7925   0.7927   0.7930   0.7942   0.7947   0.7958   0.7967
  0.7973   0.7993   0.8018   0.8020   0.8026   0.8035   0.8057   0.8062
  0.8078   0.8114   0.8116   0.8129   0.8142   0.8162   0.8175   0.8176
  0.8201   0.8202   0.8233   0.8241   0.8245   0.8264   0.8297   0.8306
  0.8308   0.8317   0.8322   0.8325   0.8371   0.8381   0.8383   0.8393
  0.8398   0.8416   0.8434   0.8451   0.8460   0.8465   0.8470   0.8485
  0.8504   0.8516   0.8529   0.8541   0.8544   0.8578   0.8580   0.8595
  0.8598   0.8610   0.8638   0.8646   0.8651   0.8677   0.8679   0.8680
  0.8691   0.8720   0.8724   0.8733   0.8740   0.8756   0.8757   0.8770
  0.8776   0.8800   0.8802   0.8827   0.8857   0.8862   0.8869   0.8877
  0.8904   0.8910   0.8914   0.8937   0.8940   0.8951   0.8975   0.9011
  0.9042   0.9056   0.9071   0.9078   0.9095   0.9119   0.9132   0.9145
  0.9147   0.9161   0.9175   0.9179   0.9193   0.9215   0.9226   0.9259
  0.9263   0.9276   0.9290   0.9301   0.9305   0.9327   0.9348   0.9351
  0.9364   0.9379   0.9401   0.9408   0.9426   0.9445   0.9465   0.9484
  0.9503   0.9514   0.9519   0.9519   0.9560   0.9572   0.9615   0.9621
  0.9636   0.9656   0.9669   0.9673   0.9682   0.9692   0.9725   0.9733
  0.9764   0.9770   0.9804   0.9827   0.9857   0.9860   0.9885   0.9901
  0.9921   0.9924   0.9945   0.9972   0.9981   1.0002   1.0031   1.0084
  1.0085   1.0094   1.0120   1.0135   1.0159   1.0164   1.0170   1.0192
  1.0195   1.0228   1.0243   1.0259   1.0271   1.0289   1.0301   1.0332
  1.0344   1.0378   1.0408   1.0426   1.0430   1.0447   1.0450   1.0481
  1.0497   1.0528   1.0535   1.0557   1.0583   1.0615   1.0631   1.0642
  1.0677   1.0710   1.0720   1.0745   1.0752   1.0784   1.0788   1.0810
  1.0814   1.0835   1.0847   1.0867   1.0874   1.0885   1.0912   1.0916
  1.0964   1.0991   1.1029   1.1039   1.1060   1.1070   1.1072   1.1100
  1.1160   1.1174   1.1182   1.1186   1.1216   1.1244   1.1256   1.1259
  1.1281   1.1307   1.1322   1.1347   1.1379   1.1412   1.1441   1.1446
  1.1458   1.1472   1.1474   1.1506   1.1536   1.1574   1.1596   1.1621
  1.1634   1.1653   1.1690   1.1699   1.1755   1.1756   1.1789   1.1793
  1.1826   1.1855   1.1859   1.1871   1.1886   1.1940   1.1951   1.1993
  1.1995   1.2021   1.2025   1.2045   1.2071   1.2088   1.2101   1.2151
  1.2165   1.2180   1.2186   1.2204   1.2236   1.2250   1.2279   1.2284
  1.2339   1.2359   1.2382   1.2424   1.2461   1.2463   1.2466   1.2477
  1.2512   1.2537   1.2597   1.2610   1.2631   1.2636   1.2658   1.2699
  1.2713   1.2749   1.2775   1.2796   1.2807   1.2831   1.2849   1.2875
  1.2886   1.2897   1.2942   1.2966   1.2996   1.3007   1.3047   1.3069
  1.3105   1.3108   1.3123   1.3180   1.3184   1.3196   1.3213   1.3251
  1.3278   1.3302   1.3325   1.3345   1.3371   1.3377   1.3431   1.3455
  1.3479   1.3498   1.3499   1.3551   1.3559   1.3577   1.3597   1.3610
  1.3630   1.3640   1.3671   1.3675   1.3685   1.3706   1.3755   1.3767
  1.3775   1.3799   1.3835   1.3891   1.3910   1.3962   1.3975   1.4006
  1.4036   1.4048   1.4087   1.4120   1.4135   1.4158   1.4164   1.4191
  1.4214   1.4245   1.4249   1.4283   1.4288   1.4326   1.4337   1.4360
  1.4378   1.4404   1.4406   1.4426   1.4446   1.4453   1.4522   1.4544
  1.4566   1.4603   1.4610   1.4615   1.4673   1.4694   1.4720   1.4731
  1.4764   1.4771   1.4778   1.4809   1.4830   1.4840   1.4846   1.4868
  1.4883   1.4891   1.4953   1.4959   1.4964   1.4971   1.4984   1.5001
  1.5027   1.5057   1.5082   1.5097   1.5106   1.5115   1.5135   1.5145
  1.5194   1.5210   1.5222   1.5224   1.5246   1.5255   1.5266   1.5292
  1.5326   1.5367   1.5376   1.5400   1.5421   1.5456   1.5460   1.5487
  1.5499   1.5508   1.5528   1.5552   1.5560   1.5562   1.5597   1.5604
  1.5613   1.5660   1.5731   1.5733   1.5745   1.5752   1.5777   1.5787
  1.5856   1.5862   1.5874   1.5880   1.5887   1.5919   1.5955   1.5971
  1.5979   1.6008   1.6019   1.6048   1.6070   1.6094   1.6107   1.6124
  1.6156   1.6163   1.6210   1.6219   1.6225   1.6246   1.6252   1.6270
  1.6288   1.6307   1.6344   1.6363   1.6386   1.6387   1.6416   1.6433
  1.6492   1.6524   1.6543   1.6546   1.6573   1.6583   1.6608   1.6632
  1.6643   1.6659   1.6673   1.6687   1.6701   1.6738   1.6751   1.6770
  1.6792   1.6803   1.6838   1.6869   1.6879   1.6879   1.6922   1.6932
  1.6963   1.6972   1.6997   1.7021   1.7024   1.7095   1.7098   1.7125
  1.7140   1.7157   1.7163   1.7175   1.7206   1.7225   1.7280   1.7287
  1.7307   1.7353   1.7355   1.7394   1.7404   1.7414   1.7429   1.7443
  1.7478   1.7506   1.7544   1.7548   1.7577   1.7587   1.7596   1.7643
  1.7644   1.7662   1.7687   1.7721   1.7739   1.7761   1.7770   1.7811
  1.7852   1.7855   1.7880   1.7912   1.7917   1.7953   1.7997   1.8010
  1.8044   1.8050   1.8095   1.8115   1.8154   1.8160   1.8199   1.8227
  1.8260   1.8286   1.8297   1.8369   1.8373   1.8413   1.8452   1.8477
  1.8500   1.8516   1.8559   1.8602   1.8622   1.8663   1.8699   1.8724
  1.8741   1.8763   1.8793   1.8830   1.8861   1.8898   1.8954   1.8963
  1.8978   1.8989   1.9047   1.9054   1.9068   1.9128   1.9130   1.9168
  1.9249   1.9252   1.9299   1.9320   1.9340   1.9390   1.9407   1.9414
  1.9439   1.9503   1.9508   1.9521   1.9580   1.9614   1.9648   1.9684
  1.9725   1.9741   1.9748   1.9762   1.9789   1.9829   1.9842   1.9854
  1.9859   1.9928   1.9975   1.9995   2.0020   2.0042   2.0081   2.0094
  2.0113   2.0116   2.0141   2.0199   2.0253   2.0264   2.0293   2.0314
  2.0335   2.0394   2.0431   2.0434   2.0473   2.0476   2.0566   2.0585
  2.0619   2.0622   2.0662   2.0750   2.0778   2.0794   2.0807   2.0842
  2.0847   2.0867   2.0956   2.0994   2.1056   2.1084   2.1108   2.1132
  2.1173   2.1193   2.1275   2.1284   2.1353   2.1363   2.1376   2.1422
  2.1429   2.1465   2.1489   2.1542   2.1581   2.1628   2.1652   2.1694
  2.1722   2.1750   2.1764   2.1798   2.1826   2.1849   2.1931   2.1970
  2.1978   2.2012   2.2026   2.2054   2.2083   2.2084   2.2162   2.2199
  2.2255   2.2265   2.2273   2.2303   2.2364   2.2377   2.2387   2.2440
  2.2466   2.2494   2.2528   2.2543   2.2621   2.2649   2.2665   2.2723
  2.2745   2.2785   2.2850   2.2873   2.2926   2.2937   2.2949   2.2990
  2.3039   2.3051   2.3141   2.3206   2.3263   2.3291   2.3310   2.3372
  2.3407   2.3408   2.3436   2.3453   2.3551   2.3576   2.3637   2.3664
  2.3674   2.3733   2.3774   2.3804   2.3815   2.3849   2.3904   2.3915
  2.3941   2.3947   2.3961   2.4000   2.4004   2.4038   2.4089   2.4101
  2.4131   2.4161   2.4195   2.4209   2.4271   2.4323   2.4326   2.4356
  2.4401   2.4429   2.4467   2.4537   2.4548   2.4570   2.4592   2.4614
  2.4647   2.4656   2.4682   2.4726   2.4758   2.4781   2.4802   2.4875
  2.4915   2.4948   2.4949   2.5019   2.5029   2.5073   2.5093   2.5124
  2.5147   2.5191   2.5195   2.5202   2.5247   2.5270   2.5313   2.5320
  2.5351   2.5418   2.5429   2.5500   2.5510   2.5522   2.5567   2.5625
  2.5634   2.5692   2.5715   2.5749   2.5797   2.5811   2.5838   2.5854
  2.5892   2.5932   2.5949   2.6009   2.6037   2.6050   2.6098   2.6120
  2.6176   2.6223   2.6232   2.6248   2.6250   2.6351   2.6393   2.6398
  2.6455   2.6479   2.6534   2.6593   2.6608   2.6653   2.6660   2.6726
  2.6741   2.6827   2.6842   2.6854   2.6955   2.6982   2.7024   2.7027
  2.7054   2.7091   2.7121   2.7143   2.7159   2.7207   2.7225   2.7234
  2.7323   2.7358   2.7431   2.7460   2.7479   2.7490   2.7510   2.7622
  2.7628   2.7673   2.7676   2.7753   2.7767   2.7843   2.7864   2.7887
  2.7899   2.7904   2.7955   2.7992   2.8072   2.8082   2.8089   2.8134
  2.8155   2.8184   2.8223   2.8236   2.8285   2.8287   2.8295   2.8347
  2.8387   2.8418   2.8463   2.8477   2.8482   2.8518   2.8521   2.8572
  2.8599   2.8632   2.8651   2.8669   2.8690   2.8696   2.8719   2.8747
  2.8756   2.8783   2.8840   2.8867   2.8895   2.8907   2.8937   2.8987
  2.9009   2.9027   2.9060   2.9085   2.9089   2.9133   2.9161   2.9169
  2.9176   2.9234   2.9238   2.9281   2.9299   2.9305   2.9344   2.9352
  2.9389   2.9425   2.9462   2.9512   2.9521   2.9610   2.9666   2.9673
  2.9678   2.9728   2.9765   2.9791   2.9805   2.9854   2.9872   2.9899
  2.9921   2.9937   2.9998   3.0042   3.0080   3.0087   3.0111   3.0178
  3.0188   3.0201   3.0230   3.0237   3.0284   3.0293   3.0335   3.0341
  3.0438   3.0455   3.0511   3.0548   3.0559   3.0607   3.0641   3.0685
  3.0723   3.0745   3.0760   3.0796   3.0814   3.0864   3.0883   3.0900
  3.0919   3.0982   3.1010   3.1103   3.1115   3.1136   3.1163   3.1182
  3.1201   3.1231   3.1239   3.1309   3.1321   3.1339   3.1380   3.1449
  3.1466   3.1499   3.1584   3.1615   3.1655   3.1672   3.1693   3.1721
  3.1786   3.1815   3.1841   3.1848   3.1891   3.1917   3.1960   3.1990
  3.1992   3.2026   3.2060   3.2079   3.2113   3.2135   3.2140   3.2200
  3.2224   3.2230   3.2251   3.2266   3.2293   3.2312   3.2347   3.2354
  3.2375   3.2397   3.2402   3.2451   3.2460   3.2479   3.2510   3.2521
  3.2554   3.2600   3.2617   3.2631   3.2666   3.2674   3.2706   3.2717
  3.2753   3.2766   3.2769   3.2784   3.2857   3.2868   3.2871   3.2875
  3.2940   3.2950   3.2965   3.2982   3.3026   3.3063   3.3073   3.3083
  3.3090   3.3146   3.3157   3.3186   3.3189   3.3209   3.3266   3.3280
  3.3286   3.3314   3.3357   3.3364   3.3427   3.3428   3.3448   3.3472
  3.3477   3.3497   3.3531   3.3536   3.3584   3.3605   3.3615   3.3625
  3.3637   3.3657   3.3688   3.3694   3.3712   3.3733   3.3797   3.3827
  3.3840   3.3867   3.3878   3.3907   3.3928   3.3939   3.3950   3.3968
  3.3973   3.3982   3.3992   3.3998   3.4030   3.4034   3.4049   3.4057
  3.4103   3.4137   3.4169   3.4183   3.4219   3.4225   3.4229   3.4251
  3.4259   3.4308   3.4321   3.4342   3.4368   3.4386   3.4387   3.4408
  3.4434   3.4459   3.4476   3.4500   3.4509   3.4549   3.4583   3.4604
  3.4607   3.4612   3.4640   3.4676   3.4694   3.4717   3.4741   3.4745
  3.4783   3.4822   3.4831   3.4841   3.4878   3.4898   3.4920   3.4947
  3.4961   3.4979   3.5009   3.5080   3.5091   3.5134   3.5148   3.5160
  3.5193   3.5204   3.5244   3.5253   3.5258   3.5299   3.5320   3.5333
  3.5351   3.5363   3.5398   3.5441   3.5468   3.5479   3.5489   3.5558
  3.5583   3.5591   3.5603   3.5613   3.5655   3.5663   3.5666   3.5706
  3.5724   3.5757   3.5783   3.5803   3.5808   3.5849   3.5851   3.5869
  3.5889   3.5914   3.5927   3.5965   3.5987   3.5998   3.6037   3.6060
  3.6068   3.6086   3.6111   3.6127   3.6142   3.6192   3.6224   3.6239
  3.6272   3.6281   3.6293   3.6303   3.6323   3.6373   3.6380   3.6398
  3.6461   3.6484   3.6496   3.6512   3.6540   3.6558   3.6573   3.6612
  3.6644   3.6649   3.6667   3.6688   3.6705   3.6723   3.6773   3.6810
  3.6841   3.6867   3.6901   3.6925   3.6954   3.6975   3.6988   3.7015
  3.7025   3.7035   3.7080   3.7125   3.7133   3.7138   3.7169   3.7199
  3.7212   3.7222   3.7251   3.7265   3.7314   3.7340   3.7353   3.7357
  3.7411   3.7428   3.7428   3.7437   3.7491   3.7507   3.7512   3.7536
  3.7561   3.7574   3.7596   3.7657   3.7674   3.7677   3.7737   3.7744
  3.7765   3.7773   3.7800   3.7826   3.7851   3.7864   3.7874   3.7885
  3.7925   3.7993   3.8016   3.8022   3.8033   3.8039   3.8067   3.8097
  3.8121   3.8131   3.8140   3.8178   3.8208   3.8253   3.8256   3.8269
  3.8290   3.8325   3.8348   3.8351   3.8392   3.8394   3.8403   3.8440
  3.8446   3.8455   3.8468   3.8517   3.8526   3.8564   3.8607   3.8617
  3.8636   3.8649   3.8651   3.8704   3.8754   3.8764   3.8785   3.8795
  3.8832   3.8854   3.8881   3.8906   3.8913   3.8920   3.8963   3.8972
  3.9012   3.9037   3.9055   3.9068   3.9113   3.9116   3.9148   3.9181
  3.9185   3.9217   3.9224   3.9250   3.9292   3.9308   3.9360   3.9361
  3.9407   3.9413   3.9463   3.9476   3.9508   3.9531   3.9561   3.9564
  3.9603   3.9616   3.9630   3.9656   3.9664   3.9670   3.9692   3.9754
  3.9760   3.9780   3.9802   3.9826   3.9858   3.9866   3.9891   3.9906
  3.9911   4.0009   4.0024   4.0050   4.0064   4.0080   4.0114   4.0133
  4.0182   4.0211   4.0215   4.0242   4.0253   4.0295   4.0301   4.0338
  4.0344   4.0374   4.0380   4.0444   4.0454   4.0516   4.0538   4.0560
  4.0568   4.0637   4.0691   4.0703   4.0719   4.0794   4.0796   4.0836
  4.0851   4.0880   4.0895   4.0935   4.0942   4.0975   4.0995   4.1038
  4.1054   4.1060   4.1076   4.1115   4.1142   4.1155   4.1180   4.1202
  4.1223   4.1236   4.1246   4.1271   4.1293   4.1301   4.1326   4.1387
  4.1401   4.1460   4.1468   4.1495   4.1504   4.1554   4.1559   4.1591
  4.1626   4.1633   4.1686   4.1714   4.1740   4.1775   4.1798   4.1871
  4.1927   4.1929   4.1947   4.1982   4.2015   4.2023   4.2059   4.2103
  4.2110   4.2126   4.2165   4.2175   4.2198   4.2282   4.2288   4.2321
  4.2335   4.2439   4.2456   4.2473   4.2514   4.2553   4.2558   4.2617
  4.2639   4.2690   4.2778   4.2797   4.2802   4.2816   4.2873   4.2888
  4.2912   4.2938   4.2971   4.2980   4.3047   4.3054   4.3093   4.3107
  4.3119   4.3141   4.3190   4.3208   4.3212   4.3227   4.3232   4.3268
  4.3333   4.3354   4.3394   4.3415   4.3430   4.3448   4.3540   4.3574
  4.3578   4.3587   4.3612   4.3677   4.3743   4.3765   4.3771   4.3778
  4.3798   4.3853   4.3862   4.3919   4.3921   4.3949   4.4026   4.4066
  4.4072   4.4107   4.4138   4.4144   4.4155   4.4166   4.4220   4.4224
  4.4288   4.4331   4.4352   4.4355   4.4386   4.4400   4.4410   4.4433
  4.4455   4.4497   4.4510   4.4539   4.4549   4.4577   4.4606   4.4616
  4.4641   4.4671   4.4688   4.4696   4.4717   4.4797   4.4807   4.4843
  4.4850   4.4885   4.4900   4.4916   4.4949   4.4952   4.5012   4.5043
  4.5059   4.5062   4.5076   4.5094   4.5116   4.5168   4.5178   4.5207
  4.5224   4.5226   4.5253   4.5262   4.5293   4.5337   4.5365   4.5426
  4.5445   4.5481   4.5512   4.5515   4.5525   4.5561   4.5577   4.5667
  4.5678   4.5710   4.5775   4.5813   4.5870   4.5895   4.5933   4.5946
  4.5977   4.6021   4.6050   4.6067   4.6098   4.6125   4.6132   4.6176
  4.6187   4.6205   4.6223   4.6287   4.6291   4.6314   4.6366   4.6375
  4.6397   4.6409   4.6441   4.6451   4.6482   4.6492   4.6571   4.6604
  4.6606   4.6621   4.6692   4.6792   4.6803   4.6829   4.6858   4.6873
  4.6875   4.6888   4.6994   4.7037   4.7116   4.7130   4.7147   4.7186
  4.7204   4.7212   4.7236   4.7290   4.7296   4.7350   4.7357   4.7425
  4.7438   4.7470   4.7511   4.7564   4.7612   4.7640   4.7647   4.7669
  4.7715   4.7727   4.7766   4.7774   4.7807   4.7831   4.7839   4.7866
  4.7926   4.7969   4.7974   4.8006   4.8037   4.8061   4.8071   4.8108
  4.8146   4.8189   4.8220   4.8232   4.8241   4.8286   4.8302   4.8369
  4.8376   4.8465   4.8479   4.8555   4.8597   4.8606   4.8646   4.8724
  4.8739   4.8743   4.8760   4.8839   4.8871   4.8905   4.8950   4.8972
  4.9008   4.9044   4.9049   4.9107   4.9121   4.9143   4.9166   4.9196
  4.9214   4.9258   4.9311   4.9323   4.9338   4.9354   4.9435   4.9456
  4.9488   4.9517   4.9569   4.9621   4.9649   4.9742   4.9765   4.9822
  4.9866   4.9885   4.9921   4.9955   4.9960   5.0028   5.0043   5.0089
  5.0095   5.0143   5.0177   5.0206   5.0239   5.0267   5.0273   5.0336
  5.0396   5.0406   5.0491   5.0505   5.0520   5.0526   5.0602   5.0643
  5.0711   5.0734   5.0778   5.0836   5.0851   5.0940   5.0951   5.1004
  5.1086   5.1093   5.1177   5.1204   5.1291   5.1347   5.1471   5.1534
  5.1648   5.1751   5.1769   5.1894   5.1909   5.1936   5.2001   5.2058
  5.2074   5.2078   5.2210   5.2213   5.2231   5.2281   5.2335   5.2339
  5.2411   5.2471   5.2476   5.2525   5.2542   5.2569   5.2608   5.2638
  5.2643   5.2686   5.2759   5.2793   5.2795   5.2800   5.2902   5.2914
  5.2959   5.2976   5.3009   5.3012   5.3081   5.3108   5.3135   5.3149
  5.3200   5.3310   5.3333   5.3357   5.3366   5.3452   5.3487   5.3507
  5.3544   5.3600   5.3708   5.3741   5.3772   5.3805   5.3851   5.3869
  5.3885   5.3907   5.3946   5.3967   5.3980   5.4016   5.4065   5.4102
  5.4106   5.4168   5.4172   5.4195   5.4223   5.4265   5.4285   5.4345
  5.4454   5.4512   5.4589   5.4680   5.4782   5.4940   5.4990   5.4994
  5.5051   5.5239   5.5284   5.5308   5.5351   5.5409   5.5440   5.5628
  5.5649   5.5671   5.5747   5.5762   5.5865   5.5878   5.5910   5.5929
  5.6064   5.6158   5.6211   5.6218   5.6277   5.6334   5.6390   5.6491
  5.6528   5.6544   5.6588   5.6685   5.6761   5.6763   5.6813   5.6878
  5.7085   5.7091   5.7110   5.7191   5.7201   5.7235   5.7399   5.7428
  5.7471   5.7635   5.7763   5.7882   5.8066   5.8172   5.8221   5.8301
  5.8388   5.8535   5.8550   5.8604   5.8726   5.8837   5.8865   5.8886
  5.8975   5.8997   5.9024   5.9164   5.9272   5.9390   5.9396   5.9430
  5.9440   5.9475   5.9672   5.9694   5.9723   5.9845   5.9912   5.9984
  6.0061   6.0150   6.0158   6.0240   6.0288   6.0384   6.0456   6.0511
  6.0519   6.0543   6.0657   6.0842   6.0875   6.0916   6.0999   6.1107
  6.1263   6.1457   6.1484   6.1594   6.1645   6.1663   6.1754   6.1906
  6.1965   6.2055   6.2079   6.2385   6.2826   6.2916   6.3018   6.4347
  6.4472   6.4871   6.4890   6.5242   6.5284   6.5309   6.5425   6.6389
  6.7245   6.7293   6.9117  24.0244  24.0519  24.0661  24.0714  24.1004
 24.1100  24.1213  24.1488  24.1995  24.2223  24.2620  24.2768  24.2796
 24.2852  24.2956  24.3073  24.3154  24.3547  24.3613  24.3814  24.3903
 24.3991  24.4234  24.4540  24.4736  24.4808  24.4878  24.5018  24.5361
 24.5660  24.5785  24.5838  24.5999  24.6053  24.6232  24.6249  24.6303
 24.6549  24.6569  24.6609  24.6667  24.6740  24.6838  24.6868  24.7084
 24.7416  24.9032  25.0128  25.0868  25.0929  25.1239  25.1465  25.1534
 25.3366  33.7440  33.8039  33.8071  33.8438
 --------------------------------------------------------------
 
          Ground-State Mulliken Net Atomic Charges

     Atom                 Charge (a.u.)    Spin (a.u.)
  --------------------------------------------------------
      1 C                     0.646466       0.001283
      2 C                    -0.305967      -0.003186
      3 C                     0.490659       0.004510
      4 C                     0.494792      -0.004616
      5 C                    -0.304084       0.003240
      6 C                     0.645646      -0.001001
      7 C                    -0.463276      -0.000387
      8 C                     0.482497       0.000022
      9 C                     0.480579      -0.000065
     10 C                    -0.465064       0.000463
     11 C                    -0.453402      -0.000409
     12 C                     0.581523       0.001670
     13 C                     0.576274      -0.001560
     14 C                    -0.453858       0.000446
     15 C                    -0.558968      -0.000011
     16 C                    -0.505070      -0.000899
     17 C                    -0.503645       0.000796
     18 C                     0.643900      -0.000195
     19 C                     0.646532       0.000513
     20 C                    -0.323374       0.003531
     21 C                     0.524274      -0.006240
     22 C                     0.521371       0.006509
     23 C                    -0.329821      -0.003853
     24 C                    -0.731118      -0.000019
     25 C                    -0.476552      -0.000057
     26 C                     0.387070      -0.001322
     27 C                     0.386924       0.001318
     28 C                    -0.474081       0.000038
     29 C                    -0.073595       0.000693
     30 C                     0.106442       0.000016
     31 C                     0.112061       0.000022
     32 C                    -0.076647      -0.000662
     33 C                    -0.694634       0.000004
     34 C                    -0.514246      -0.000192
     35 C                     0.464281      -0.006357
     36 C                     0.461310       0.006207
     37 C                    -0.511732       0.000064
     38 C                    -0.205855       0.003355
     39 C                     0.112394      -0.001193
     40 C                     0.127979       0.001183
     41 C                    -0.210502      -0.003315
     42 C                    -0.520815      -0.000004
     43 H                    -0.358725       0.003722
     44 H                    -0.361998      -0.003835
     45 H                     0.200907       0.000164
     46 H                     0.200619      -0.000198
     47 H                    -0.213606      -0.000543
     48 H                    -0.209925       0.000533
     49 H                     0.174190       0.000001
     50 H                     0.168293       0.000000
     51 H                     0.195752      -0.000496
     52 H                     0.194615       0.000449
     53 H                    -0.345947      -0.004388
     54 H                    -0.343208       0.004241
     55 H                     0.170520       0.000002
     56 H                     0.170183       0.000002
     57 H                     0.244947       0.000097
     58 H                     0.246993      -0.000122
     59 H                    -0.106535      -0.000456
     60 H                    -0.081714       0.000173
     61 H                    -0.080980      -0.000174
     62 H                    -0.111075       0.000395
     63 H                     0.184288      -0.000001
     64 H                     0.175383       0.000001
     65 H                     0.218518      -0.000029
     66 H                     0.216496       0.000009
     67 H                    -0.170456      -0.001218
     68 H                    -0.009898       0.000157
     69 H                    -0.009081      -0.000244
     70 H                    -0.170004       0.001432
     71 H                     0.193743       0.000002
     72 H                     0.199124      -0.000007
     73 C                     0.025102       0.043650
     74 C                    -0.006269      -0.044588
     75 C                    -0.002773       0.044354
     76 C                     0.009677      -0.043720
     77 C                    -0.014820       0.052421
     78 C                    -0.024870      -0.052626
     79 C                     0.653806      -0.056949
     80 C                     0.209427      -0.007060
     81 N                    -0.578607      -0.031657
     82 C                     0.188412      -0.007702
     83 N                    -0.585494      -0.031817
     84 C                     0.674029       0.057060
     85 C                     0.204886       0.007173
     86 N                    -0.578584       0.031658
     87 C                     0.173872       0.007677
     88 N                    -0.584193       0.031784
     89 H                    -0.096665      -0.000027
     90 H                    -0.107426       0.000327
     91 H                     0.060456      -0.000546
     92 H                     0.061946       0.000580
  --------------------------------------------------------
  Sum of atomic charges =    -0.000000
  Sum of spin   charges =    -0.000000

 -----------------------------------------------------------------
                    Cartesian Multipole Moments
 -----------------------------------------------------------------
    Charge (ESU x 10^10)
                -0.0000
    Dipole Moment (Debye)
         X      -0.2199      Y       1.1965      Z       0.0226
       Tot       1.2167
    Quadrupole Moments (Debye-Ang)
        XX    -332.1820     XY       7.0761     YY    -324.0638
        XZ       0.4541     YZ       1.0723     ZZ    -367.2369
    Octopole Moments (Debye-Ang^2)
       XXX       0.2782    XXY      19.8001    XYY     -11.1512
       YYY      34.5085    XXZ       0.6290    XYZ      -0.0651
       YYZ      -0.2599    XZZ     -11.0314    YZZ      17.3287
       ZZZ       0.8700
    Hexadecapole Moments (Debye-Ang^3)
      XXXX  -21163.7655   XXXY     317.4985   XXYY   -5312.2366
      XYYY     -16.6200   YYYY  -11175.2003   XXXZ     -31.7062
      XXYZ      -6.9067   XYYZ     -22.1403   YYYZ     -49.4656
      XXZZ   -4927.7014   XYZZ     132.6543   YYZZ   -2892.4687
      XZZZ     -35.8539   YZZZ      -5.7988   ZZZZ   -7952.4042
 -----------------------------------------------------------------
 Total job time:  3500.13s(wall), 119938.67s(cpu) 
 [redacted timestamp]

        *************************************************************
        *                                                           *
        *  Thank you very much for using Q-Chem.  Have a nice day.  *
        *                                                           *
        *************************************************************
