                  Welcome to Q-Chem
     A Quantum Leap Into The Future Of Chemistry


 Q-Chem 5.4 (devel), Q-Chem, Inc., Pleasanton, CA (2021)

 E. Epifanovsky,  A. T. B. Gilbert,  Xintian Feng,  Joonho Lee,  Yuezhi Mao,  
 N. Mardirossian,  P. Pokhilko,  A. White,  M. Wormit,  M. P. Coons,  
 A. L. Dempwolff,  Zhengting Gan,  D. Hait,  P. R. Horn,  L. D. Jacobson,  
 I. Kaliman,  J. Kussmann,  A. W. Lange,  Ka Un Lao,  D. S. Levine,  Jie Liu,  
 S. C. McKenzie,  A. F. Morrison,  K. Nanda,  F. Plasser,  D. R. Rehn,  
 M. L. Vidal,  Zhi-Qiang You,  Ying Zhu,  B. Alam,  B. Albrecht,  
 A. Aldossary,  E. Alguire,  J. H. Andersen,  D. Barton,  K. Begam,  A. Behn,  
 Y. A. Bernard,  E. J. Berquist,  H. Burton,  A. Carreras,  K. Carter-Fenk,  
 Romit Chakraborty,  A. D. Chien,  K. D. Closser,  V. Cofer-Shabica,  
 S. Dasgupta,  Jia Deng,  M. de Wergifosse,  M. Diedenhofen,  Hainam Do,  
 S. Ehlert,  Po-Tung Fang,  S. Fatehi,  Qingguo Feng,  T. Friedhoff,  
 J. Gayvert,  Qinghui Ge,  G. Gidofalvi,  M. Goldey,  J. Gomes,  
 C. Gonzalez-Espinoza,  S. Gulania,  A. Gunina,  M. W. D. Hanson-Heine,  
 P. H. P. Harbach,  A. W. Hauser,  M. F. Herbst,  M. Hernandez Vera,  
 M. Hodecker,  Z. C. Holden,  S. Houck,  Xunkun Huang,  Kerwin Hui,  
 B. C. Huynh,  M. Ivanov,  Hyunjun Ji,  Hanjie Jiang,  B. Kaduk,  S. Kaehler,  
 K. Khistyaev,  Jaehoon Kim,  P. Klunzinger,  Z. Koczor-Benda,  
 Joong Hoon Koh,  D. Kosenkov,  L. Koulias,  T. Kowalczyk,  C. M. Krauter,  
 K. Kue,  A. Kunitsa,  T. Kus,  A. Landau,  K. V. Lawler,  D. Lefrancois,  
 S. Lehtola,  Rain Li,  Yi-Pei Li,  Jiashu Liang,  M. Liebenthal,  
 Hung-Hsuan Lin,  You-Sheng Lin,  Fenglai Liu,  Kuan-Yu Liu,  
 M. Loipersberger,  A. Luenser,  A. Manjanath,  P. Manohar,  E. Mansoor,  
 S. F. Manzer,  Shan-Ping Mao,  A. V. Marenich,  T. Markovich,  S. Mason,  
 S. A. Maurer,  P. F. McLaughlin,  M. F. S. J. Menger,  J.-M. Mewes,  
 S. A. Mewes,  P. Morgante,  J. W. Mullinax,  K. J. Oosterbaan,  G. Paran,  
 Alexander C. Paul,  Suranjan K. Paul,  F. Pavosevic,  Zheng Pei,  S. Prager,  
 E. I. Proynov,  E. Ramos,  B. Rana,  A. E. Rask,  A. Rettig,  R. M. Richard,  
 F. Rob,  E. Rossomme,  T. Scheele,  M. Scheurer,  M. Schneider,  
 N. Sergueev,  S. M. Sharada,  W. Skomorowski,  D. W. Small,  C. J. Stein,  
 Yu-Chuan Su,  E. J. Sundstrom,  Zhen Tao,  J. Thirman,  T. Tsuchimochi,  
 N. M. Tubman,  S. P. Veccham,  O. Vydrov,  J. Wenzel,  J. Witte,  A. Yamada,  
 Kun Yao,  S. Yeganeh,  S. R. Yost,  A. Zech,  Igor Ying Zhang,  Xing Zhang,  
 Yu Zhang,  D. Zuev,  A. Aspuru-Guzik,  A. T. Bell,  N. A. Besley,  
 K. B. Bravaya,  B. R. Brooks,  D. Casanova,  Jeng-Da Chai,  S. Coriani,  
 C. J. Cramer,  A. E. DePrince, III,  R. A. DiStasio Jr.,  A. Dreuw,  
 B. D. Dunietz,  T. R. Furlani,  W. A. Goddard III,  S. Grimme,  
 S. Hammes-Schiffer,  T. Head-Gordon,  W. J. Hehre,  Chao-Ping Hsu,  
 T.-C. Jagau,  Yousung Jung,  A. Klamt,  Jing Kong,  D. S. Lambrecht,  
 WanZhen Liang,  N. J. Mayhall,  C. W. McCurdy,  J. B. Neaton,  T. Neudecker,  
 C. Ochsenfeld,  J. A. Parkhill,  R. Peverati,  V. A. Rassolov,  Yihan Shao,  
 L. V. Slipchenko,  R. P. Steele,  J. E. Subotnik,  A. J. W. Thom,  
 A. Tkatchenko,  D. G. Truhlar,  T. Van Voorhis,  T. A. Wesolowski,  
 K. B. Whaley,  H. L. Woodcock III,  P. M. Zimmerman,  S. Faraji,  
 P. M. W. Gill,  M. Head-Gordon,  J. M. Herbert,  A. I. Krylov

 Additional authors since Version 5.4.0: 
 Chandrima Chakravarty,  L. Cunha,  R. Kang,  Yongbin Kim,  S. Kotaru,  
 Shaozhi Li,  Xiangyuan Li,  F. Matz,  V. Parravicini,  Haisheng Ren,  
 Hengyuan Shen,  Yingli Su,  Hung-Yi Tsai,  C. Utku,  Fan Wang,  Jeff Yang,  
 F. Zeller

 Contributors to earlier versions of Q-Chem not listed above: 
 R. D. Adamson,  B. Austin,  R. Baer,  J. Baker,  G. J. O. Beran,  
 K. Brandhorst,  S. T. Brown,  E. F. C. Byrd,  Arup K. Chakraborty,  
 G. K. L. Chan,  Chun-Min Chang,  Yunqing Chen,  C.-L. Cheng,  
 Siu Hung Chien,  D. M. Chipman,  D. L. Crittenden,  H. Dachsel,  
 R. J. Doerksen,  A. D. Dutoi,  R. G. Edgar,  J. Fosso-Tande,  
 L. Fusti-Molnar,  D. Ghosh,  A. Ghysels,  A. Golubeva-Zadorozhnaya,  
 J. Gonthier,  M. S. Gordon,  S. R. Gwaltney,  G. Hawkins,  J. E. Herr,  
 A. Heyden,  S. Hirata,  E. G. Hohenstein,  G. Kedziora,  F. J. Keil,  
 C. Kelley,  Jihan Kim,  R. A. King,  R. Z. Khaliullin,  P. P. Korambath,  
 W. Kurlancheek,  A. Laurent,  A. M. Lee,  M. S. Lee,  S. V. Levchenko,  
 Ching Yeh Lin,  D. Liotard,  E. Livshits,  R. C. Lochan,  I. Lotan,  
 L. A. Martinez-Martinez,  P. E. Maslen,  N. Nair,  D. P. O'Neill,  
 D. Neuhauser,  E. Neuscamman,  C. M. Oana,  R. Olivares-Amaya,  R. Olson,  
 T. M. Perrine,  B. Peters,  P. A. Pieniazek,  A. Prociuk,  Y. M. Rhee,  
 J. Ritchie,  M. A. Rohrdanz,  E. Rosta,  N. J. Russ,  H. F. Schaefer III,  
 M. W. Schmidt,  N. E. Schultz,  S. Sharma,  N. Shenvi,  C. D. Sherrill,  
 A. C. Simmonett,  A. Sodt,  T. Stein,  D. Stuck,  K. S. Thanthiriwatte,  
 V. Vanovschi,  L. Vogt,  Tao Wang,  A. Warshel,  M. A. Watson,  
 C. F. Williams,  Q. Wu,  X. Xu,  Jun Yang,  W. Zhang,  Yan Zhao

   Please cite Q-Chem as follows:
  "Software for the frontiers of quantum chemistry:
   An overview of developments in the Q-Chem 5 package"
   J. Chem. Phys. 155, 084801 (2021)
   https://doi.org/10.1063/5.0055522 (open access)

 Q-Chem 5.4.2 for Intel X86 EM64T Linux

 Parts of Q-Chem use Armadillo 9.900.5 (Nocturnal Misbehaviour).
 http://arma.sourceforge.net/

 Q-Chem begins on [redacted timestamp]

 Host: [redacted host]
0

     Scratch files written to [redacted path]
 Processing $rem in [redacted path]:
 Processing $rem in [redacted path]:

 Checking the input file for inconsistencies... 	...done.

--------------------------------------------------------------
User input:
--------------------------------------------------------------
$molecule
0 1
   O          0.00000000      0.00000000      0.39393904
   H         -0.75503878      0.00000000     -0.19696952
   H          0.75503878      0.00000000     -0.19696952
$end


$rem
SCF_CONVERGENCE 7
SCF_ALGORITHM  GDM
method COACH
SCF_FINAL_PRINT 1
GEN_SCFMAN TRUE
UNRESTRICTED True
THRESH  14
SYMMETRY FALSE
SYM_IGNORE TRUE
max_scf_cycles 200

XC_GRID 000099000590
MEM_TOTAL  15000
BASIS DEF2-QZVPPD


$end










--------------------------------------------------------------
 ----------------------------------------------------------------
             Standard Nuclear Orientation (Angstroms)
    I     Atom           X                Y                Z
 ----------------------------------------------------------------
    1      O       0.0000000000     0.0000000000     0.3939390400
    2      H      -0.7550387800     0.0000000000    -0.1969695200
    3      H       0.7550387800     0.0000000000    -0.1969695200
 ----------------------------------------------------------------
 Nuclear Repulsion Energy =       9.181285695624 hartrees
 There are        5 alpha and        5 beta electrons
 Requested basis set is def2-QZVPPD
 There are 42 shells and 132 basis functions

 Total QAlloc Memory Limit  15000 MB
 Mega-Array Size       188 MB
 MEM_STATIC part       192 MB


                       Distance Matrix (Angstroms)
             O (  1)   H (  2)
   H (  2)  0.958779
   H (  3)  0.958779  1.510078
 
 A cutoff of  1.0D-14 yielded    903 shell pairs
 There are      9017 function pairs (     13005 Cartesian)
 Smallest overlap matrix eigenvalue = 1.34E-04

 Scale SEOQF with 1.000000e-01/1.000000e-01/1.000000e-01

 Standard Electronic Orientation quadrupole field applied
 Nucleus-field energy     =    -0.0000000001 hartrees
 Guess from superposition of atomic densities
 Warning:  Energy on first SCF cycle will be non-variational
 SAD guess density has 10.000000 electrons

 -----------------------------------------------------------------------
  General SCF calculation program by
  Eric Jon Sundstrom, Paul Horn, Yuezhi Mao, Dmitri Zuev, Alec White,
  David Stuck, Shaama M.S., Shane Yost, Joonho Lee, David Small,
  Daniel Levine, Susi Lehtola, Hugh Burton, Evgeny Epifanovsky,
  Bang C. Huynh
 -----------------------------------------------------------------------
 Exchange:     0.2288 Hartree-Fock + 1.0000 COACH + LR-HF
 Correlation:  1.0000 COACH
 Using Euler-Maclaurin-Lebedev (99,590) quadrature formula
 Nonlocal Correlation:  VV10 with C = 0.0100 and b = 5.50 and scale = 1.00000
 Grid used for NLC:  SG-1 standard quadrature
 A unrestricted SCF calculation will be
 performed using Roothaan-Hall, GDM
 SCF converges when RMS gradient is below 1.0e-07
 ---------------------------------------
  Cycle       Energy         DIIS error
 ---------------------------------------
    1     -76.3298406386      1.28e-02  Roothaan Step
 ---------------------------------------
  Cycle       Energy        RMS Gradient
 ---------------------------------------
    1     -76.3808564098      1.07e-01   Descent step
    2     -76.4189462526      4.82e-02   Normal BFGS step
    3     -76.4333514590      4.24e-03   Normal BFGS step
    4     -76.4335097906      9.52e-04   Normal BFGS step
    5     -76.4335177040      1.64e-04   Normal BFGS step
    6     -76.4335179325      3.75e-05   Normal BFGS step
    7     -76.4335179436      6.74e-06   Normal BFGS step
    8     -76.4335179439      1.35e-06   Normal BFGS step
    9     -76.4335179439      2.42e-07   Normal BFGS step
   10     -76.4335179439      5.42e-08  Convergence criterion met
 ---------------------------------------
 SCF time:   CPU 114.90s  wall 30.00s 
<S^2> =         -0.000000000
 SCF   energy in the final basis set =      -76.4335179439
 Total energy in the final basis set =      -76.4335179439
 Alpha HF Exchange         Energy =  -1.57648220359856
 Beta HF Exchange          Energy =  -1.57648220359855
 DFT Correlation           Energy =  -0.31072247739992
 DFT Exchange              Energy =  -5.87610598291253
 DFT Non-Local Correlation Energy =   0.04800219050775
 Nuclear Attraction        Energy =   0.00000000000000
 One-Electron (alpha)      Energy = -61.48258401518684
 One-Electron (beta)       Energy = -61.48258401518667
 Total Coulomb             Energy =  46.64215506796162
 
 --------------------------------------------------------------
 
                    Orbital Energies (a.u.)
 --------------------------------------------------------------
 
 Alpha MOs
 -- Occupied --
-19.3789  -1.1526  -0.6436  -0.5089  -0.4310
 -- Virtual --
  0.0467   0.0765   0.0981   0.0991   0.1725   0.1923   0.2173   0.2255
  0.2361   0.2744   0.2991   0.3257   0.4016   0.4071   0.4369   0.4994
  0.5054   0.5073   0.5676   0.5796   0.5951   0.7046   0.8292   0.8689
  0.8963   1.0095   1.0496   1.0822   1.1553   1.2037   1.3930   1.4490
  1.5103   1.5277   1.5695   1.6498   1.6860   1.9885   2.0116   2.0954
  2.1418   2.3681   2.3729   2.5337   2.5467   2.5733   2.6578   2.6885
  2.7632   2.7769   2.8036   3.0121   3.2463   3.2893   3.3427   3.5394
  3.8332   4.0036   4.0054   4.0363   4.2101   4.2565   4.3767   4.3926
  4.5159   4.6966   4.9265   4.9414   5.4123   5.4757   5.5532   5.8737
  6.0589   6.1553   6.2486   6.6095   6.7067   6.9237   7.2511   7.2718
  7.3552   7.3788   7.4692   7.4714   7.5468   7.5961   7.7853   7.8357
  7.9216   7.9982   8.0228   8.0329   8.1697   8.2259   8.5039   8.6590
  8.7331   8.8783   8.9066   9.1496   9.2731   9.9849  10.0071  10.3795
 10.4245  10.8262  10.8680  11.0795  11.2072  11.2669  11.4110  11.5987
 11.8534  11.9084  11.9555  11.9810  12.3706  13.0076  13.6504  13.7381
 13.8239  14.2116  14.5359  16.8137  16.8139  48.4150 271.7276
 
 Beta MOs
 -- Occupied --
-19.3789  -1.1526  -0.6436  -0.5089  -0.4310
 -- Virtual --
  0.0467   0.0765   0.0981   0.0991   0.1725   0.1923   0.2173   0.2255
  0.2361   0.2744   0.2991   0.3257   0.4016   0.4071   0.4369   0.4994
  0.5054   0.5073   0.5676   0.5796   0.5951   0.7046   0.8292   0.8689
  0.8963   1.0095   1.0496   1.0822   1.1553   1.2037   1.3930   1.4490
  1.5103   1.5277   1.5695   1.6498   1.6860   1.9885   2.0116   2.0954
  2.1418   2.3681   2.3729   2.5337   2.5467   2.5733   2.6578   2.6885
  2.7632   2.7769   2.8036   3.0121   3.2463   3.2893   3.3427   3.5394
  3.8332   4.0036   4.0054   4.0363   4.2101   4.2565   4.3767   4.3926
  4.5159   4.6966   4.9265   4.9414   5.4123   5.4757   5.5532   5.8737
  6.0589   6.1553   6.2486   6.6095   6.7067   6.9237   7.2511   7.2718
  7.3552   7.3788   7.4692   7.4714   7.5468   7.5961   7.7853   7.8357
  7.9216   7.9982   8.0228   8.0329   8.1697   8.2259   8.5039   8.6590
  8.7331   8.8783   8.9066   9.1496   9.2731   9.9849  10.0071  10.3795
 10.4245  10.8262  10.8680  11.0795  11.2072  11.2669  11.4110  11.5987
 11.8534  11.9084  11.9555  11.9810  12.3706  13.0076  13.6504  13.7381
 13.8239  14.2116  14.5359  16.8137  16.8139  48.4150 271.7276
 --------------------------------------------------------------
 
          Ground-State Mulliken Net Atomic Charges

     Atom                 Charge (a.u.)    Spin (a.u.)
  --------------------------------------------------------
      1 O                    -0.582644      -0.000000
      2 H                     0.291322       0.000000
      3 H                     0.291322       0.000000
  --------------------------------------------------------
  Sum of atomic charges =    -0.000000
  Sum of spin   charges =     0.000000

 -----------------------------------------------------------------
                    Cartesian Multipole Moments
 -----------------------------------------------------------------
    Charge (ESU x 10^10)
                -0.0000
    Dipole Moment (Debye)
         X       0.0000      Y       0.0000      Z      -1.8783
       Tot       1.8783
    Quadrupole Moments (Debye-Ang)
        XX      -4.5224     XY      -0.0000     YY      -7.8154
        XZ      -0.0000     YZ       0.0000     ZZ      -7.4988
    Octopole Moments (Debye-Ang^2)
       XXX       0.0000    XXY       0.0000    XYY      -0.0000
       YYY       0.0000    XXZ      -2.5452    XYZ      -0.0000
       YYZ      -2.3790    XZZ       0.0000    YZZ       0.0000
       ZZZ      -6.7947
    Hexadecapole Moments (Debye-Ang^3)
      XXXX      -6.7166   XXXY      -0.0000   XXYY      -2.7277
      XYYY      -0.0000   YYYY      -7.7481   XXXZ      -0.0000
      XXYZ       0.0000   XYYZ       0.0000   YYYZ       0.0000
      XXZZ      -3.1971   XYZZ      -0.0000   YYZZ      -3.3993
      XZZZ      -0.0000   YZZZ       0.0000   ZZZZ     -12.2695
 -----------------------------------------------------------------
 Mayer SCF Bond Order, atomic valence on the diagonal:

            1           2           3
    1   1.9313487   0.9656744   0.9656744
    2   0.9656744   0.9805552   0.0148808
    3   0.9656744   0.0148808   0.9805552


 Total job time:  32.62s(wall), 125.75s(cpu) 
 [redacted timestamp]

        *************************************************************
        *                                                           *
        *  Thank you very much for using Q-Chem.  Have a nice day.  *
        *                                                           *
        *************************************************************
